51
Lattice="7.084087802956708 0.0 0.0 0.0 8.676200205158938 0.0 0.0 0.0 28.0" Properties=species:S:1:pos:R:3:initial_magmoms:R:1:forces:R:3:magmoms:R:1 adsorbate_info="_JSON {\"sites\": {}}" energy=-153.5548528814085 dipole="-50.09711910728408 -25.350035633965987 4.839032165573104" magmom=0.0 pbc="T T F"
Ag       4.88621572       1.51687968      16.49217409       0.00000000       0.00952101      -0.00478109      -0.04634771       0.00000000
Ag       4.89109768       4.40846339      16.49456542       0.00000000       0.01263213      -0.00185632      -0.04250427       0.00000000
Ag       4.89141186       7.30320554      16.48573720       0.00000000      -0.00095120       0.00034062      -0.03589633       0.00000000
Ag       2.52078168       0.04992118      15.70868116       0.00000000      -0.01765154      -0.00324863      -0.00894551       0.00000000
Ag       2.52213694       2.94553337      15.68932892       0.00000000      -0.00174214       0.00387401      -0.01472149       0.00000000
Ag       2.51717126       5.83080342      15.72103667       0.00000000      -0.01196052       0.00727459      -0.01585236       0.00000000
Ag       0.16543255       1.47652973      14.85718221       0.00000000       0.00476058       0.00022599      -0.02043155       0.00000000
Ag       0.16426336       4.36870552      14.85071106       0.00000000       0.00178329      -0.00063281      -0.01124260       0.00000000
Ag       0.17017640       7.25730700      14.85007763       0.00000000      -0.00112681      -0.00242469      -0.00658919       0.00000000
Ag       4.87532182       0.04673217      13.87272331       0.00000000      -0.00460841       0.00216075       0.00154336       0.00000000
Ag       4.87122837       2.93986206      13.87418383       0.00000000       0.01271638       0.00048289       0.00411692       0.00000000
Ag       4.86727006       5.83256025      13.88060736       0.00000000       0.01064446      -0.00167985       0.01005594       0.00000000
Ag       2.45716533       1.47483174      13.02010383       0.00000000       0.00434758      -0.00153029      -0.00587931       0.00000000
Ag       2.45499660       4.37001014      13.01827915       0.00000000       0.00115797      -0.00464895      -0.00552824       0.00000000
Ag       2.45709544       7.26071285      13.02620323       0.00000000       0.00476147      -0.00398533      -0.01543228       0.00000000
Ag       0.06721299       0.01889912      12.12937015       0.00000000      -0.00404169      -0.00186845      -0.00016588       0.00000000
Ag       0.06334800       2.91029797      12.12783361       0.00000000       0.00613150       0.00074502       0.00255224       0.00000000
Ag       0.06069297       5.80327735      12.12846499       0.00000000       0.00693740      -0.00009682      -0.00374173       0.00000000
Ag       4.72272520       1.44603337      11.17433877       0.00000000       0.15939547       0.01678723       0.50730854       0.00000000
Ag       4.72272520       4.33810010      11.17433877       0.00000000       0.15577423       0.02149487       0.50892895       0.00000000
Ag       4.72272520       7.23016684      11.17433877       0.00000000       0.15259941       0.01502864       0.51288545       0.00000000
Ag       2.36136260       0.00000000      10.33947102       0.00000000       0.04197445       0.00473082       0.35481927       0.00000000
Ag       2.36136260       2.89206674      10.33947102       0.00000000       0.03919535       0.00564328       0.35247401       0.00000000
Ag       2.36136260       5.78413347      10.33947102       0.00000000       0.03518227       0.00923877       0.35921151       0.00000000
Ag      -0.00000000       1.44603337       9.50460326       0.00000000      -0.10842961       0.00458261       0.11421843       0.00000000
Ag      -0.00000000       4.33810010       9.50460326       0.00000000      -0.10630418       0.00799350       0.11448850       0.00000000
Ag      -0.00000000       7.23016684       9.50460326       0.00000000      -0.10768283       0.00729032       0.11466194       0.00000000
Ag       4.72272520       0.00000000       8.66973551       0.00000000      -0.09476961      -0.00049246      -0.39177195       0.00000000
Ag       4.72272520       2.89206674       8.66973551       0.00000000      -0.09613530      -0.00070708      -0.39359281       0.00000000
Ag       4.72272520       5.78413347       8.66973551       0.00000000      -0.09517707      -0.00004254      -0.39586582       0.00000000
Ag       2.36136260       1.44603337       7.83486775       0.00000000       0.07040433       0.00043351      -0.33424795       0.00000000
Ag       2.36136260       4.33810010       7.83486775       0.00000000       0.06918382      -0.00080095      -0.33271308       0.00000000
Ag       2.36136260       7.23016684       7.83486775       0.00000000       0.06980444      -0.00006453      -0.33274682       0.00000000
Ag       0.00000000       0.00000000       7.00000000       0.00000000      -0.05777377      -0.00050259      -0.14549569       0.00000000
Ag       0.00000000       2.89206674       7.00000000       0.00000000      -0.05438018       0.00082390      -0.14603291       0.00000000
Ag       0.00000000       5.78413347       7.00000000       0.00000000      -0.05538907      -0.00063700      -0.14792206       0.00000000
O        2.99190195       5.53855970      19.96676680       0.00000000      -0.02530651       0.01029580       0.00966823       0.00000000
H        2.09177793       5.89554428      19.80970943       0.00000000      -0.01413106       0.00246885       0.02003063       0.00000000
H        3.34973317       5.40084176      19.06788244       0.00000000       0.00223499       0.01062768      -0.01215371       0.00000000
O        5.82859531       2.76562736      21.27593544       0.00000000      -0.03331752       0.02459281      -0.01771049       0.00000000
H        6.51982694       3.18042978      20.73070704       0.00000000       0.01167356       0.00016929       0.00410313       0.00000000
H        5.62886537       1.92549186      20.80511337       0.00000000       0.00406407      -0.00607052       0.02835174       0.00000000
O        5.27399912       0.15594563      19.98120714       0.00000000       0.01118299      -0.03578192      -0.00309921       0.00000000
H        5.11952422       0.29325223      19.01949254       0.00000000      -0.01898955       0.00477212      -0.01914069       0.00000000
H        4.43956446      -0.25059791      20.28290597       0.00000000       0.00843779       0.01117855       0.02246590       0.00000000
O        1.31862106       1.89426709      19.00184787       0.00000000      -0.00094317       0.00459243       0.00938018       0.00000000
H        2.20078936       1.95887282      18.58432858       0.00000000       0.01305877      -0.00334095       0.02591849       0.00000000
H        0.73086100       1.85840875      18.22074203       0.00000000      -0.00591824      -0.00249506      -0.00800099       0.00000000
O        0.12987142       6.45491241      19.57129602       0.00000000      -0.00873744      -0.00418172       0.02123667       0.00000000
H       -0.42202678       7.23475942      19.79772718       0.00000000       0.02405259       0.01077191       0.00084851       0.00000000
H       -0.02806687       6.33958300      18.61434593       0.00000000      -0.01359183      -0.01973221      -0.00162589       0.00000000
