54
Lattice="7.084087802956708 0.0 0.0 0.0 8.676200205158938 0.0 0.0 0.0 28.0" Properties=species:S:1:pos:R:3:initial_magmoms:R:1:forces:R:3:magmoms:R:1 adsorbate_info="_JSON {\"sites\": {}}" energy=-176.616828552787 dipole="-42.19133629412249 -27.629501163448097 7.5225781329012325" magmom=0.0 pbc="T T F"
Ag       4.85742039       1.52712268      16.46142874       0.00000000      -0.00526316       0.00543378      -0.00216478       0.00000000
Ag       4.86759760       4.42352668      16.67209964       0.00000000       0.00566789      -0.00367785       0.01440957       0.00000000
Ag       4.86878403       7.31949535      16.46331304       0.00000000       0.00045800       0.00839364       0.00082763       0.00000000
Ag       2.48609193       0.07976736      15.65313313       0.00000000       0.00489533       0.00945104       0.00720486       0.00000000
Ag       2.48714860       2.97826889      15.63338917       0.00000000       0.01368864       0.00153155      -0.00498085       0.00000000
Ag       2.48822553       5.86350885      15.63836691       0.00000000      -0.00648333      -0.00833740       0.00581358       0.00000000
Ag       0.12908402       1.51842734      14.82094289       0.00000000      -0.00700303      -0.00498007      -0.00118131       0.00000000
Ag       0.10813568       4.41186108      14.83362421       0.00000000       0.00288458       0.00948255       0.00277686       0.00000000
Ag       0.13147964       7.30336885      14.81095605       0.00000000      -0.00538506      -0.00143084       0.00009965       0.00000000
Ag       4.84600610       0.06773367      13.87326943       0.00000000       0.00319274       0.00334547      -0.00177331       0.00000000
Ag       4.84725920       2.97982449      13.89643912       0.00000000      -0.00579964      -0.00292759      -0.00218055       0.00000000
Ag       4.83926821       5.84026282      13.90340229       0.00000000       0.01052020      -0.00700001      -0.00099518       0.00000000
Ag       2.42752633       1.50500716      12.98938644       0.00000000       0.00823488      -0.00211255       0.00096981       0.00000000
Ag       2.42512469       4.39742409      12.99990566       0.00000000       0.00070287      -0.00535316      -0.00317065       0.00000000
Ag       2.42797968       7.28956767      12.99253878       0.00000000       0.00294866      -0.00684819      -0.00270705       0.00000000
Ag       0.03690299       0.03302038      12.11054992       0.00000000       0.00038707      -0.00228977       0.00335382       0.00000000
Ag       0.03341069       2.92364704      12.11333594       0.00000000       0.00300445      -0.00058431      -0.00130026       0.00000000
Ag       0.03100797       5.81382811      12.11244364       0.00000000      -0.00468352       0.00043327       0.00459616       0.00000000
Ag       4.72272520       1.44603337      11.17433877       0.00000000       0.10449255       0.02974736       0.51357672       0.00000000
Ag       4.72272520       4.33810010      11.17433877       0.00000000       0.08812209       0.03183461       0.47965693       0.00000000
Ag       4.72272520       7.23016684      11.17433877       0.00000000       0.10103084       0.02277721       0.51335078       0.00000000
Ag       2.36136260       0.00000000      10.33947102       0.00000000       0.02216521       0.01424199       0.31879269       0.00000000
Ag       2.36136260       2.89206674      10.33947102       0.00000000       0.03326721       0.02349350       0.34996776       0.00000000
Ag       2.36136260       5.78413347      10.33947102       0.00000000       0.03230301       0.01004025       0.35965334       0.00000000
Ag      -0.00000000       1.44603337       9.50460326       0.00000000      -0.10249495       0.00632170       0.07685961       0.00000000
Ag      -0.00000000       4.33810010       9.50460326       0.00000000      -0.10639296       0.01161790       0.08299880       0.00000000
Ag      -0.00000000       7.23016684       9.50460326       0.00000000      -0.10268366       0.01832996       0.08110996       0.00000000
Ag       4.72272520       0.00000000       8.66973551       0.00000000      -0.09952928       0.00114298      -0.41479054       0.00000000
Ag       4.72272520       2.89206674       8.66973551       0.00000000      -0.09715100      -0.01526594      -0.40268736       0.00000000
Ag       4.72272520       5.78413347       8.66973551       0.00000000      -0.09537487       0.01237252      -0.40576620       0.00000000
Ag       2.36136260       1.44603337       7.83486775       0.00000000       0.07769246       0.00085785      -0.32989235       0.00000000
Ag       2.36136260       4.33810010       7.83486775       0.00000000       0.05487088      -0.00245473      -0.32386239       0.00000000
Ag       2.36136260       7.23016684       7.83486775       0.00000000       0.07550851       0.00054635      -0.32864581       0.00000000
Ag       0.00000000       0.00000000       7.00000000       0.00000000      -0.05757276      -0.00075560      -0.14154655       0.00000000
Ag       0.00000000       2.89206674       7.00000000       0.00000000      -0.04812412       0.01098948      -0.13847211       0.00000000
Ag       0.00000000       5.78413347       7.00000000       0.00000000      -0.04869968      -0.01068669      -0.14173845       0.00000000
C        4.94702375       4.48262513      18.92726357       0.00000000       0.00213507       0.03236247       0.00350720       0.00000000
O        6.11298654       4.38928381      19.39931625       0.00000000      -0.00365871      -0.02107967      -0.01734626       0.00000000
O        3.84812880       4.59792475      19.52193958       0.00000000      -0.02060509       0.00215573       0.02422458       0.00000000
O        3.01888484       7.06064950      20.74801048       0.00000000      -0.00825329      -0.01849212      -0.01598106       0.00000000
H        2.06092324       7.13593469      20.52453641       0.00000000      -0.00804668       0.00879127       0.02048603       0.00000000
H        3.30103995       6.22894076      20.30051820       0.00000000       0.02499463      -0.01461902       0.00111750       0.00000000
O        6.08048049       2.41669640      21.61506535       0.00000000       0.00683770       0.00503172      -0.00793200       0.00000000
H        6.11934081       3.12749743      20.93487921       0.00000000      -0.00734861       0.00455770      -0.01008010       0.00000000
H        5.69767103       1.65578610      21.12507761       0.00000000       0.00835825      -0.01321336       0.00067500       0.00000000
O        5.06578664       0.12563873      20.03314839       0.00000000      -0.00355841       0.00354236       0.00055097       0.00000000
H        4.94974915       0.39121069      19.09871667       0.00000000      -0.00547640      -0.01152705      -0.00588141       0.00000000
H        4.25901595      -0.42148491      20.23826641       0.00000000       0.00194528       0.00043032      -0.00490072       0.00000000
O        1.52081197       1.71408133      18.99388430       0.00000000      -0.01949075      -0.00711324       0.03325107       0.00000000
H        2.13194174       1.53805541      18.24821073       0.00000000      -0.03017778       0.00513738       0.02069529       0.00000000
H        0.72779922       2.06107850      18.54600321       0.00000000       0.00570323       0.01713862       0.01231097       0.00000000
O        0.17788612       6.93898998      20.47574041       0.00000000      -0.01684146      -0.01079321       0.00684855       0.00000000
H       -0.50098301       7.60439176      20.21847776       0.00000000      -0.00626097       0.02133921       0.01407627       0.00000000
H       -0.11690286       6.11587377      20.03008286       0.00000000      -0.00914223      -0.02318570       0.00369754       0.00000000
