48
Lattice="7.084087802956708 0.0 0.0 0.0 11.568266940211917 0.0 0.0 0.0 28.0" Properties=species:S:1:pos:R:3:initial_magmoms:R:1:forces:R:3:magmoms:R:1 adsorbate_info="_JSON {\"sites\": {}}" energy=-107.31944310156663 dipole="-42.67340525612713 -15.198502312132474 6.891323494650318" magmom=0.0 pbc="T T F"
Ag       4.78106973       1.44603337      16.38523257       0.00000000       0.00643954       0.00000003      -0.01946205       0.00000000
Ag       4.78106999       4.33810010      16.38523254       0.00000000       0.00643956       0.00000010      -0.01946228       0.00000000
Ag       4.78106973       7.23016684      16.38523257       0.00000000       0.00643956      -0.00000010      -0.01946228       0.00000000
Ag       2.40139653       0.00000000      15.64726929       0.00000000       0.00330297       0.00000000       0.00370523       0.00000000
Ag       2.40139663       2.89206676      15.64726926       0.00000000       0.00330311       0.00000002       0.00370596       0.00000000
Ag       2.40139663       5.78413344      15.64726926       0.00000000       0.00330314       0.00000000       0.00370496       0.00000000
Ag       0.07530284       1.44603340      14.77877659       0.00000000       0.02935608      -0.00000014      -0.00084422       0.00000000
Ag       0.07530304       4.33810010      14.77877642       0.00000000       0.02935581      -0.00000000      -0.00084446       0.00000000
Ag       0.07530284       7.23016680      14.77877659       0.00000000       0.02935581       0.00000000      -0.00084446       0.00000000
Ag       4.79874679       0.00000000      13.80431612       0.00000000       0.02352471       0.00000000       0.02985451       0.00000000
Ag       4.79874689       2.89206676      13.80431597       0.00000000       0.02352494       0.00000001       0.02985434       0.00000000
Ag       4.79874689       5.78413345      13.80431597       0.00000000       0.02352450       0.00000000       0.02985485       0.00000000
Ag       2.40318662       1.44603340      12.98832008       0.00000000      -0.00819201       0.00000001      -0.02869156       0.00000000
Ag       2.40318668       4.33810010      12.98831999       0.00000000      -0.00819215      -0.00000001      -0.02869171       0.00000000
Ag       2.40318662       7.23016680      12.98832008       0.00000000      -0.00819215       0.00000001      -0.02869171       0.00000000
Ag       0.03180555       0.00000000      12.09939335       0.00000000      -0.01701768       0.00000000      -0.01622521       0.00000000
Ag       0.03180552       2.89206670      12.09939324       0.00000000      -0.01701776       0.00000010      -0.01622419       0.00000000
Ag       0.03180552       5.78413351      12.09939324       0.00000000      -0.01701752       0.00000000      -0.01622494       0.00000000
Ag       4.72272520       1.44603337      11.17433877       0.00000000       0.07315377       0.00000018       0.42791527       0.00000000
Ag       4.72272520       4.33810010      11.17433877       0.00000000       0.07315369      -0.00000029       0.42791538       0.00000000
Ag       4.72272520       7.23016684      11.17433877       0.00000000       0.07315369       0.00000029       0.42791538       0.00000000
Ag       2.36136260       0.00000000      10.33947102       0.00000000       0.03913362       0.00000000       0.32031598       0.00000000
Ag       2.36136260       2.89206674      10.33947102       0.00000000       0.03913352      -0.00000010       0.32031615       0.00000000
Ag       2.36136260       5.78413347      10.33947102       0.00000000       0.03913358       0.00000000       0.32031626       0.00000000
Ag      -0.00000000       1.44603337       9.50460326       0.00000000      -0.11367407      -0.00000004       0.06300489       0.00000000
Ag      -0.00000000       4.33810010       9.50460326       0.00000000      -0.11367410       0.00000001       0.06300485       0.00000000
Ag      -0.00000000       7.23016684       9.50460326       0.00000000      -0.11367410      -0.00000001       0.06300485       0.00000000
Ag       4.72272520       0.00000000       8.66973551       0.00000000      -0.11946081       0.00000000      -0.36970278       0.00000000
Ag       4.72272520       2.89206674       8.66973551       0.00000000      -0.11946099       0.00000001      -0.36970237       0.00000000
Ag       4.72272520       5.78413347       8.66973551       0.00000000      -0.11946071       0.00000000      -0.36970242       0.00000000
Ag       2.36136260       1.44603337       7.83486775       0.00000000       0.06955036       0.00000005      -0.33171784       0.00000000
Ag       2.36136260       4.33810010       7.83486775       0.00000000       0.06955035      -0.00000005      -0.33171774       0.00000000
Ag       2.36136260       7.23016684       7.83486775       0.00000000       0.06955035       0.00000005      -0.33171774       0.00000000
Ag       0.00000000       0.00000000       7.00000000       0.00000000      -0.03460600       0.00000000      -0.11243228       0.00000000
Ag       0.00000000       2.89206674       7.00000000       0.00000000      -0.03460580       0.00000001      -0.11243334       0.00000000
Ag       0.00000000       5.78413347       7.00000000       0.00000000      -0.03460598       0.00000000      -0.11243232       0.00000000
Ag       4.78106973      10.12223357      16.38523257       0.00000000       0.00643954      -0.00000003      -0.01946205       0.00000000
Ag       2.40139653       8.67620021      15.64726929       0.00000000       0.00330311      -0.00000002       0.00370596       0.00000000
Ag       0.07530284      10.12223361      14.77877659       0.00000000       0.02935608       0.00000014      -0.00084422       0.00000000
Ag       4.79874679       8.67620021      13.80431612       0.00000000       0.02352494      -0.00000001       0.02985434       0.00000000
Ag       2.40318662      10.12223361      12.98832008       0.00000000      -0.00819201      -0.00000001      -0.02869156       0.00000000
Ag       0.03180555       8.67620021      12.09939335       0.00000000      -0.01701776      -0.00000010      -0.01622419       0.00000000
Ag       4.72272520      10.12223357      11.17433877       0.00000000       0.07315377      -0.00000018       0.42791527       0.00000000
Ag       2.36136260       8.67620021      10.33947102       0.00000000       0.03913352       0.00000010       0.32031615       0.00000000
Ag      -0.00000000      10.12223357       9.50460326       0.00000000      -0.11367407       0.00000004       0.06300489       0.00000000
Ag       4.72272520       8.67620021       8.66973551       0.00000000      -0.11946099      -0.00000001      -0.36970237       0.00000000
Ag       2.36136260      10.12223357       7.83486775       0.00000000       0.06955036      -0.00000005      -0.33171784       0.00000000
Ag       0.00000000       8.67620021       7.00000000       0.00000000      -0.03460580      -0.00000001      -0.11243334       0.00000000
