54
Lattice="7.084087802956708 0.0 0.0 0.0 11.568266940211917 0.0 0.0 0.0 28.0" Properties=species:S:1:pos:R:3:initial_magmoms:R:1:forces:R:3:magmoms:R:1 adsorbate_info="_JSON {\"sites\": {}}" energy=-136.50368979602734 dipole="-44.317296190672096 -6.2178283127913705 6.602861708383661" magmom=0.0 pbc="T T F"
Ag       4.79241511       1.36216872      16.39079630       0.00000000       0.01242098       0.01058849      -0.00223438       0.00000000
Ag       4.79558091       4.25663088      16.38454869       0.00000000       0.00562766      -0.00793459      -0.01340209       0.00000000
Ag       4.79556411       7.14335720      16.41073943       0.00000000      -0.00164990       0.02066270       0.00331011       0.00000000
Ag       2.42718028      -0.06358317      15.62831551       0.00000000       0.01201539      -0.00535944       0.00493165       0.00000000
Ag       2.42591474       2.82936150      15.62802371       0.00000000       0.02104449      -0.00760249       0.00162141       0.00000000
Ag       2.43159343       5.72115572      15.63440179       0.00000000       0.00867873      -0.00793334       0.00107095       0.00000000
Ag       0.09412104       1.38924209      14.79602459       0.00000000      -0.01441926      -0.01335104       0.00121675       0.00000000
Ag       0.09712338       4.28103201      14.79296836       0.00000000      -0.01141307      -0.00349356       0.00384578       0.00000000
Ag       0.09394458       7.16897329      14.80684186       0.00000000      -0.00256371      -0.00833189      -0.00108664       0.00000000
Ag       4.80880626      -0.06815213      13.82125925       0.00000000       0.01124201      -0.00526743       0.00834092       0.00000000
Ag       4.80977092       2.82537463      13.81571344       0.00000000       0.00818133      -0.00160583       0.00941628       0.00000000
Ag       4.81240826       5.72189346      13.82064150       0.00000000       0.00253874      -0.00679741       0.00292066       0.00000000
Ag       2.40725204       1.38900782      12.97811044       0.00000000      -0.00748579      -0.00084495      -0.00704794       0.00000000
Ag       2.40897718       4.28257654      12.97881518       0.00000000      -0.00639549      -0.00087769      -0.00901209       0.00000000
Ag       2.40748331       7.17424371      12.98081222       0.00000000      -0.00691395      -0.00386298      -0.00762124       0.00000000
Ag       0.02904266      -0.02410255      12.10237236       0.00000000      -0.00451487       0.00022364      -0.00399939       0.00000000
Ag       0.02949959       2.87010356      12.09972511       0.00000000       0.00007232      -0.00525446      -0.00503005       0.00000000
Ag       0.02918075       5.76321649      12.10125547       0.00000000       0.00051172      -0.00492993      -0.00605112       0.00000000
Ag       4.72272520       1.44603337      11.17433877       0.00000000       0.08071614      -0.03381125       0.42919488       0.00000000
Ag       4.72272520       4.33810010      11.17433877       0.00000000       0.08056936      -0.02785501       0.43016874       0.00000000
Ag       4.72272520       7.23016684      11.17433877       0.00000000       0.07621418      -0.02333533       0.44355525       0.00000000
Ag       2.36136260       0.00000000      10.33947102       0.00000000       0.03335635      -0.01805937       0.30546603       0.00000000
Ag       2.36136260       2.89206674      10.33947102       0.00000000       0.03726138      -0.01656937       0.30515603       0.00000000
Ag       2.36136260       5.78413347      10.33947102       0.00000000       0.03471374      -0.01605352       0.30674945       0.00000000
Ag      -0.00000000       1.44603337       9.50460326       0.00000000      -0.11372580      -0.01052584       0.06076273       0.00000000
Ag      -0.00000000       4.33810010       9.50460326       0.00000000      -0.11359626      -0.00857973       0.05968723       0.00000000
Ag      -0.00000000       7.23016684       9.50460326       0.00000000      -0.11313827      -0.00745422       0.06188362       0.00000000
Ag       4.72272520       0.00000000       8.66973551       0.00000000      -0.11829174      -0.00003054      -0.37766288       0.00000000
Ag       4.72272520       2.89206674       8.66973551       0.00000000      -0.11721284      -0.00008538      -0.37707857       0.00000000
Ag       4.72272520       5.78413347       8.66973551       0.00000000      -0.11812636       0.00054545      -0.37722729       0.00000000
Ag       2.36136260       1.44603337       7.83486775       0.00000000       0.06862414       0.00069469      -0.33996382       0.00000000
Ag       2.36136260       4.33810010       7.83486775       0.00000000       0.06785509      -0.00024712      -0.34059343       0.00000000
Ag       2.36136260       7.23016684       7.83486775       0.00000000       0.06829606       0.00042264      -0.33970959       0.00000000
Ag       0.00000000       0.00000000       7.00000000       0.00000000      -0.03309332       0.00067096      -0.12107323       0.00000000
Ag       0.00000000       2.89206674       7.00000000       0.00000000      -0.03266611       0.00059477      -0.12166469       0.00000000
Ag       0.00000000       5.78413347       7.00000000       0.00000000      -0.03227792      -0.00024602      -0.12185745       0.00000000
O        4.67966023       4.78657850      19.98797785       0.00000000       0.00535292      -0.00130443       0.03639817       0.00000000
H        4.44528746       4.94751053      19.04964064       0.00000000       0.01585788       0.02730309      -0.00394389       0.00000000
H        5.64933313       4.88604465      19.99739394       0.00000000      -0.02211334       0.01194491      -0.00174625       0.00000000
O        4.28016985       1.86134508      20.18936379       0.00000000      -0.00295260       0.02512191       0.02246887       0.00000000
H        4.40734996       2.83320789      20.09768101       0.00000000       0.01054758       0.01017393       0.00501246       0.00000000
H        4.34096173       1.53782003      19.27002924       0.00000000      -0.01631734      -0.00043972      -0.00080650       0.00000000
Ag       4.79121650      10.04218167      16.41203941       0.00000000       0.01233356       0.00096038      -0.01073005       0.00000000
Ag       2.42988593       8.61360668      15.63178960       0.00000000       0.01722600      -0.01381164       0.00183007       0.00000000
Ag       0.09180177      10.06047467      14.80654076       0.00000000      -0.00995005      -0.00245890       0.00229272       0.00000000
Ag       4.81153036       8.61109868      13.83344914       0.00000000       0.00301889      -0.00384902      -0.00001499       0.00000000
Ag       2.40559427      10.06440632      12.97972635       0.00000000      -0.00314114      -0.00232770      -0.00717286       0.00000000
Ag       0.02620239       8.65362431      12.10410876       0.00000000       0.00057334      -0.00458212      -0.00856506       0.00000000
Ag       4.72272520      10.12223357      11.17433877       0.00000000       0.07608385      -0.03575929       0.44197521       0.00000000
Ag       2.36136260       8.67620021      10.33947102       0.00000000       0.03103606      -0.01805247       0.31142734       0.00000000
Ag      -0.00000000      10.12223357       9.50460326       0.00000000      -0.11318242      -0.00961991       0.06238971       0.00000000
Ag       4.72272520       8.67620021       8.66973551       0.00000000      -0.11745737       0.00059667      -0.37782992       0.00000000
Ag       2.36136260      10.12223357       7.83486775       0.00000000       0.06918556      -0.00012662      -0.33881840       0.00000000
Ag       0.00000000       8.67620021       7.00000000       0.00000000      -0.03338149      -0.00074303      -0.11981726       0.00000000
