57
Lattice="7.084087802956708 0.0 0.0 0.0 11.568266940211917 0.0 0.0 0.0 28.0" Properties=species:S:1:pos:R:3:initial_magmoms:R:1:forces:R:3:magmoms:R:1 adsorbate_info="_JSON {\"sites\": {}}" energy=-159.5105355262403 dipole="-40.43285771987589 -20.412196803776244 9.547342701358664" magmom=0.0 pbc="T T F"
Ag       4.80497566       1.49746902      16.39055413       0.00000000       0.00077707       0.02802218       0.02149656       0.00000000
Ag       4.77840079       4.38814674      16.63328509       0.00000000       0.01367903       0.00016469      -0.03936893       0.00000000
Ag       4.80101072       7.29920600      16.40567351       0.00000000      -0.00263707       0.00188797       0.00579661       0.00000000
Ag       2.43356753       0.05097596      15.61351247       0.00000000      -0.00798332      -0.00154442       0.00022947       0.00000000
Ag       2.42859412       2.94630718      15.58041711       0.00000000       0.00239000       0.00272344      -0.00853425       0.00000000
Ag       2.43291821       5.83699007      15.59538368       0.00000000       0.00163347      -0.00806489      -0.01011182       0.00000000
Ag       0.09171757       1.47994613      14.76707741       0.00000000       0.00880891       0.01861223       0.00942113       0.00000000
Ag       0.06854237       4.38596939      14.82082710       0.00000000      -0.01317298       0.00770798      -0.00400635       0.00000000
Ag       0.09057836       7.26929708      14.77653202       0.00000000       0.00634511       0.00932871       0.00493180       0.00000000
Ag       4.81076110       0.05687475      13.82448370       0.00000000       0.00159762       0.00413743      -0.00131724       0.00000000
Ag       4.81189822       2.96113139      13.85955286       0.00000000       0.00348056      -0.00808387       0.01097145       0.00000000
Ag       4.80362797       5.80105342      13.87803749       0.00000000       0.00494839       0.00877548       0.00829204       0.00000000
Ag       2.41060246       1.49258431      12.96572797       0.00000000       0.00043857       0.00943382      -0.00295028       0.00000000
Ag       2.39998910       4.38684287      12.97760268       0.00000000       0.00888906       0.01009708       0.00035814       0.00000000
Ag       2.41130720       7.27642401      12.96636384       0.00000000       0.00026729       0.00186889       0.00533640       0.00000000
Ag       0.02421586       0.01713255      12.09671482       0.00000000       0.00579077       0.00047656      -0.01054566       0.00000000
Ag       0.02102585       2.91024295      12.09960073       0.00000000       0.00039450      -0.00037413      -0.00038979       0.00000000
Ag       0.01693723       5.80099073      12.10396587       0.00000000      -0.00096926       0.00359159      -0.00757551       0.00000000
Ag       4.72272520       1.44603337      11.17433877       0.00000000       0.08067732       0.02902694       0.43665699       0.00000000
Ag       4.72272520       4.33810010      11.17433877       0.00000000       0.06082580       0.02362501       0.43591568       0.00000000
Ag       4.72272520       7.23016684      11.17433877       0.00000000       0.07874722       0.00710579       0.45680316       0.00000000
Ag       2.36136260       0.00000000      10.33947102       0.00000000       0.03422412       0.01333676       0.28417478       0.00000000
Ag       2.36136260       2.89206674      10.33947102       0.00000000       0.02845036       0.02807548       0.31956883       0.00000000
Ag       2.36136260       5.78413347      10.33947102       0.00000000       0.02303835       0.00288031       0.32631721       0.00000000
Ag      -0.00000000       1.44603337       9.50460326       0.00000000      -0.10650453       0.00991967       0.04997275       0.00000000
Ag      -0.00000000       4.33810010       9.50460326       0.00000000      -0.11366374       0.00912924       0.06731665       0.00000000
Ag      -0.00000000       7.23016684       9.50460326       0.00000000      -0.10670314       0.00174036       0.05330953       0.00000000
Ag       4.72272520       0.00000000       8.66973551       0.00000000      -0.11830814      -0.01966316      -0.38634147       0.00000000
Ag       4.72272520       2.89206674       8.66973551       0.00000000      -0.11220357      -0.00285706      -0.38304245       0.00000000
Ag       4.72272520       5.78413347       8.66973551       0.00000000      -0.11222809       0.00246231      -0.38224977       0.00000000
Ag       2.36136260       1.44603337       7.83486775       0.00000000       0.05865189      -0.00098702      -0.33804335       0.00000000
Ag       2.36136260       4.33810010       7.83486775       0.00000000       0.05697689      -0.00051951      -0.34296488       0.00000000
Ag       2.36136260       7.23016684       7.83486775       0.00000000       0.05793550       0.00108151      -0.33762817       0.00000000
Ag       0.00000000       0.00000000       7.00000000       0.00000000      -0.04628625       0.01116452      -0.11637675       0.00000000
Ag       0.00000000       2.89206674       7.00000000       0.00000000      -0.01753701      -0.00376896      -0.13393335       0.00000000
Ag       0.00000000       5.78413347       7.00000000       0.00000000      -0.01739771       0.00392121      -0.13397007       0.00000000
C        4.77928468       4.31053817      18.86030308       0.00000000       0.01123912       0.00383912       0.01441533       0.00000000
O        5.92744379       4.38513543      19.39044209       0.00000000       0.04801271       0.01042278       0.00165046       0.00000000
O        3.66133242       4.20889119      19.44456319       0.00000000      -0.02858901       0.01527962       0.03743526       0.00000000
O        3.36515973       5.52329342      21.91545883       0.00000000       0.00978026      -0.00474591      -0.00224057       0.00000000
H        3.21683969       6.44052345      21.62767347       0.00000000      -0.00332404       0.01194687       0.01218951       0.00000000
H        3.51995508       5.03730499      21.06207899       0.00000000      -0.01534051      -0.00849022      -0.00302471       0.00000000
O        6.33840135       2.93175025      21.75994293       0.00000000       0.00752061       0.00528181       0.01589604       0.00000000
H        6.15528576       3.46512505      20.94106432       0.00000000       0.00440654       0.01268281       0.01855793       0.00000000
H        6.42113495       2.02377198      21.42036259       0.00000000       0.00730382      -0.01089579       0.02242132       0.00000000
Ag       4.80197560      10.18182450      16.38181838       0.00000000       0.00295885       0.02271922       0.02295950       0.00000000
Ag       2.43114805       8.72590249      15.61418980       0.00000000       0.00656001       0.00065712       0.00401907       0.00000000
Ag       0.09966026      10.15953188      14.77566128       0.00000000      -0.01149766       0.00700932       0.00735413       0.00000000
Ag       4.81822350       8.70906713      13.82809801       0.00000000       0.00241930       0.01890258       0.00485813       0.00000000
Ag       2.40921333      10.16860745      12.96709042       0.00000000       0.00732117      -0.00229287       0.00956586       0.00000000
Ag       0.02510760       8.69110748      12.09656280       0.00000000       0.00596038       0.00490119      -0.00809704       0.00000000
Ag       4.72272520      10.12223357      11.17433877       0.00000000       0.07585590       0.01801819       0.46112185       0.00000000
Ag       2.36136260       8.67620021      10.33947102       0.00000000       0.03467517       0.01719714       0.28302044       0.00000000
Ag      -0.00000000      10.12223357       9.50460326       0.00000000      -0.11123828       0.00625502       0.05508987       0.00000000
Ag       4.72272520       8.67620021       8.66973551       0.00000000      -0.11832686       0.01951238      -0.38658545       0.00000000
Ag       2.36136260      10.12223357       7.83486775       0.00000000       0.09756995      -0.00047535      -0.35130196       0.00000000
Ag       0.00000000       8.67620021       7.00000000       0.00000000      -0.04590230      -0.01141098      -0.11630603       0.00000000
