42
Lattice="7.084087802956708 0.0 0.0 0.0 8.676200205158938 0.0 0.0 0.0 28.0" Properties=species:S:1:pos:R:3:initial_magmoms:R:1:forces:R:3:magmoms:R:1 adsorbate_info="_JSON {\"sites\": {}}" energy=-109.85363826480778 dipole="-32.96561920851867 -3.4654562306338046 5.340337101071362" magmom=0.0 pbc="T T F"
Ag       4.79620004       1.35420285      16.40286736       0.00000000       0.01836088       0.01126333      -0.01342019       0.00000000
Ag       4.80097469       4.24801151      16.39003318       0.00000000       0.00564828       0.00648022      -0.01179315       0.00000000
Ag       4.80309573       7.13878151      16.41401429       0.00000000       0.00182654       0.00897776       0.00885263       0.00000000
Ag       2.43562011      -0.07898940      15.63678123       0.00000000       0.00214407      -0.00145571       0.00334250       0.00000000
Ag       2.43116841       2.81534891      15.63591247       0.00000000       0.01036420      -0.01089046       0.00007489       0.00000000
Ag       2.43796503       5.70711327      15.63782992       0.00000000       0.00037996      -0.00547082       0.00519129       0.00000000
Ag       0.08800546       1.37178574      14.81063507       0.00000000       0.00494447      -0.00761933       0.00877823       0.00000000
Ag       0.09230592       4.26575890      14.80481428       0.00000000       0.00269760      -0.00924553       0.01407360       0.00000000
Ag       0.09026968       7.15566052      14.81024186       0.00000000       0.00293019      -0.00472984       0.01164489       0.00000000
Ag       4.80548864      -0.07662290      13.82309911       0.00000000       0.00538890       0.00561047       0.02300002       0.00000000
Ag       4.80540493       2.81601269      13.81839719       0.00000000       0.00450899       0.00130364       0.02059547       0.00000000
Ag       4.80730346       5.71061893      13.81840355       0.00000000       0.00243030       0.00574155       0.02627705       0.00000000
Ag       2.40088610       1.38301148      12.98550958       0.00000000       0.00456457      -0.00114661      -0.00433544       0.00000000
Ag       2.40389823       4.27592353      12.98481106       0.00000000      -0.00073019      -0.00110638      -0.00504558       0.00000000
Ag       2.40324607       7.16775303      12.98539372       0.00000000      -0.00435275      -0.00225236      -0.00339816       0.00000000
Ag       0.02900923      -0.02825915      12.10594021       0.00000000      -0.00756890      -0.00064204       0.00095834       0.00000000
Ag       0.02996862       2.86398582      12.10525850       0.00000000      -0.00624589      -0.00288915       0.00010176       0.00000000
Ag       0.03069405       5.75674789      12.10450512       0.00000000      -0.00741223      -0.00536063       0.00237126       0.00000000
Ag       4.72272520       1.44603337      11.17433877       0.00000000       0.07553673      -0.03797158       0.43050478       0.00000000
Ag       4.72272520       4.33810010      11.17433877       0.00000000       0.07875054      -0.03483061       0.42662982       0.00000000
Ag       4.72272520       7.23016684      11.17433877       0.00000000       0.07692390      -0.03382977       0.42908655       0.00000000
Ag       2.36136260       0.00000000      10.33947102       0.00000000       0.03024885      -0.01822047       0.31193682       0.00000000
Ag       2.36136260       2.89206674      10.33947102       0.00000000       0.03227637      -0.01865209       0.31084928       0.00000000
Ag       2.36136260       5.78413347      10.33947102       0.00000000       0.03304160      -0.01806985       0.30931797       0.00000000
Ag      -0.00000000       1.44603337       9.50460326       0.00000000      -0.10424937      -0.01194952       0.07088064       0.00000000
Ag      -0.00000000       4.33810010       9.50460326       0.00000000      -0.10470167      -0.01066537       0.07008678       0.00000000
Ag      -0.00000000       7.23016684       9.50460326       0.00000000      -0.10447409      -0.01015868       0.07033647       0.00000000
Ag       4.72272520       0.00000000       8.66973551       0.00000000      -0.09905275       0.00056146      -0.37741150       0.00000000
Ag       4.72272520       2.89206674       8.66973551       0.00000000      -0.09959216       0.00092796      -0.37658858       0.00000000
Ag       4.72272520       5.78413347       8.66973551       0.00000000      -0.09910709       0.00044237      -0.37751389       0.00000000
Ag       2.36136260       1.44603337       7.83486775       0.00000000       0.06747920       0.00041675      -0.33306527       0.00000000
Ag       2.36136260       4.33810010       7.83486775       0.00000000       0.06817210       0.00058665      -0.33391375       0.00000000
Ag       2.36136260       7.23016684       7.83486775       0.00000000       0.06763641       0.00008126      -0.33349276       0.00000000
Ag       0.00000000       0.00000000       7.00000000       0.00000000      -0.04985189       0.00057179      -0.11358519       0.00000000
Ag       0.00000000       2.89206674       7.00000000       0.00000000      -0.05008444      -0.00007777      -0.11320878       0.00000000
Ag       0.00000000       5.78413347       7.00000000       0.00000000      -0.05043850      -0.00000578      -0.11239435       0.00000000
O        4.67912631       4.78789862      19.98674551       0.00000000       0.00863680       0.00227000       0.03073464       0.00000000
H        4.45021849       4.96762482      19.05030678       0.00000000       0.00113164       0.01738637      -0.00297027       0.00000000
H        5.64775097       4.89287802      19.99989591       0.00000000       0.00974565       0.01109701       0.02039638       0.00000000
O        4.30207165       1.87591840      20.20651048       0.00000000       0.02589177       0.01535349       0.02117304       0.00000000
H        4.42171899       2.84679005      20.09245043       0.00000000       0.01165403       0.01169151       0.01312263       0.00000000
H        4.30335918       1.53927209      19.28957006       0.00000000      -0.00954222       0.00413595       0.01044120       0.00000000
