36
Lattice="7.084087802956708 0.0 0.0 0.0 8.676200205158938 0.0 0.0 0.0 28.0" Properties=species:S:1:pos:R:3:initial_magmoms:R:1:forces:R:3:magmoms:R:1 adsorbate_info="_JSON {\"sites\": {}}" energy=-80.67230182372377 dipole="-32.027729267739694 -11.398429644689298 5.666511912680811" magmom=0.0 pbc="T T F"
Ag       4.78106973       1.44603337      16.38523257       0.00000000       0.02664914       0.00000002      -0.03274880       0.00000000
Ag       4.78106999       4.33810010      16.38523254       0.00000000       0.02664888       0.00000000      -0.03274899       0.00000000
Ag       4.78106973       7.23016684      16.38523257       0.00000000       0.02664914      -0.00000002      -0.03274880       0.00000000
Ag       2.40139653       0.00000000      15.64726929       0.00000000       0.00191417       0.00000000      -0.00786413       0.00000000
Ag       2.40139663       2.89206676      15.64726926       0.00000000       0.00191403      -0.00000012      -0.00786404       0.00000000
Ag       2.40139663       5.78413344      15.64726926       0.00000000       0.00191403       0.00000012      -0.00786404       0.00000000
Ag       0.07530284       1.44603340      14.77877659       0.00000000       0.01340626      -0.00000014      -0.00127776       0.00000000
Ag       0.07530304       4.33810010      14.77877642       0.00000000       0.01340560       0.00000000      -0.00127793       0.00000000
Ag       0.07530284       7.23016680      14.77877659       0.00000000       0.01340626       0.00000014      -0.00127776       0.00000000
Ag       4.79874679       0.00000000      13.80431612       0.00000000       0.01325515       0.00000000       0.02804790       0.00000000
Ag       4.79874689       2.89206676      13.80431597       0.00000000       0.01325502      -0.00000011       0.02804821       0.00000000
Ag       4.79874689       5.78413345      13.80431597       0.00000000       0.01325502       0.00000011       0.02804821       0.00000000
Ag       2.40318662       1.44603340      12.98832008       0.00000000      -0.01166488      -0.00000017      -0.02386247       0.00000000
Ag       2.40318668       4.33810010      12.98831999       0.00000000      -0.01166496       0.00000000      -0.02386267       0.00000000
Ag       2.40318662       7.23016680      12.98832008       0.00000000      -0.01166488       0.00000017      -0.02386247       0.00000000
Ag       0.03180555       0.00000000      12.09939335       0.00000000      -0.01539002       0.00000000      -0.01051818       0.00000000
Ag       0.03180552       2.89206670      12.09939324       0.00000000      -0.01538974       0.00000026      -0.01051785       0.00000000
Ag       0.03180552       5.78413351      12.09939324       0.00000000      -0.01538974      -0.00000026      -0.01051785       0.00000000
Ag       4.72272520       1.44603337      11.17433877       0.00000000       0.07270307      -0.00000018       0.41081916       0.00000000
Ag       4.72272520       4.33810010      11.17433877       0.00000000       0.07270311       0.00000000       0.41081883       0.00000000
Ag       4.72272520       7.23016684      11.17433877       0.00000000       0.07270307       0.00000018       0.41081916       0.00000000
Ag       2.36136260       0.00000000      10.33947102       0.00000000       0.03800689       0.00000000       0.30752862       0.00000000
Ag       2.36136260       2.89206674      10.33947102       0.00000000       0.03800691      -0.00000009       0.30752849       0.00000000
Ag       2.36136260       5.78413347      10.33947102       0.00000000       0.03800691       0.00000009       0.30752849       0.00000000
Ag      -0.00000000       1.44603337       9.50460326       0.00000000      -0.10339578      -0.00000010       0.05893962       0.00000000
Ag      -0.00000000       4.33810010       9.50460326       0.00000000      -0.10339573       0.00000000       0.05893956       0.00000000
Ag      -0.00000000       7.23016684       9.50460326       0.00000000      -0.10339578       0.00000010       0.05893962       0.00000000
Ag       4.72272520       0.00000000       8.66973551       0.00000000      -0.10053988       0.00000000      -0.38137284       0.00000000
Ag       4.72272520       2.89206674       8.66973551       0.00000000      -0.10053984      -0.00000002      -0.38137294       0.00000000
Ag       4.72272520       5.78413347       8.66973551       0.00000000      -0.10053984       0.00000002      -0.38137294       0.00000000
Ag       2.36136260       1.44603337       7.83486775       0.00000000       0.07133952      -0.00000003      -0.33832918       0.00000000
Ag       2.36136260       4.33810010       7.83486775       0.00000000       0.07133948       0.00000000      -0.33832923       0.00000000
Ag       2.36136260       7.23016684       7.83486775       0.00000000       0.07133952       0.00000003      -0.33832918       0.00000000
Ag       0.00000000       0.00000000       7.00000000       0.00000000      -0.05191064       0.00000000      -0.11536871       0.00000000
Ag       0.00000000       2.89206674       7.00000000       0.00000000      -0.05191062      -0.00000002      -0.11536877       0.00000000
Ag       0.00000000       5.78413347       7.00000000       0.00000000      -0.05191062       0.00000002      -0.11536877       0.00000000
