39
Lattice="7.084087802956708 0.0 0.0 0.0 8.676200205158938 0.0 0.0 0.0 28.0" Properties=species:S:1:pos:R:3:initial_magmoms:R:1:forces:R:3:magmoms:R:1 adsorbate_info="_JSON {\"sites\": {}}" energy=-103.58030327821957 dipole="-28.00763694752101 -11.85928204763799 8.481695865242598" magmom=0.0 pbc="T T F"
Ag       4.77501052       1.44584080      16.44533550       0.00000000       0.02977041       0.00546239      -0.02373724       0.00000000
Ag       4.77189580       4.33768776      16.63497405       0.00000000      -0.02113699       0.01781888      -0.00620964       0.00000000
Ag       4.77649958       7.23889655      16.44658390       0.00000000       0.02558360      -0.01762563      -0.02283932       0.00000000
Ag       2.40902610       0.00752572      15.60495836       0.00000000       0.01458916       0.00030808       0.03530530       0.00000000
Ag       2.40335750       2.90285865      15.60950364       0.00000000       0.03254932      -0.00133492       0.00229334       0.00000000
Ag       2.40518858       5.78719823      15.61446889       0.00000000       0.02278999       0.00790220      -0.00122321       0.00000000
Ag       0.06423350       1.45683761      14.79289866       0.00000000       0.01182153      -0.02200697      -0.01434160       0.00000000
Ag       0.03499143       4.34218769      14.82289779       0.00000000       0.00173082       0.00311810       0.00472222       0.00000000
Ag       0.06523534       7.22816160      14.79354911       0.00000000       0.01076382       0.02757587      -0.01517490       0.00000000
Ag       4.79379205       0.00265276      13.86129389       0.00000000       0.00533134       0.00080120       0.01449518       0.00000000
Ag       4.78455216       2.91250193      13.87598940       0.00000000       0.00405090      -0.02329558       0.01620731       0.00000000
Ag       4.78447276       5.76834989      13.87972937       0.00000000       0.00326440       0.02939902       0.01482235       0.00000000
Ag       2.40252062       1.45370213      12.95988003       0.00000000      -0.01055729       0.00654138       0.01930461       0.00000000
Ag       2.38657088       4.34630698      12.98550932       0.00000000       0.01154312       0.00417465       0.00449628       0.00000000
Ag       2.40220008       7.23556679      12.95893510       0.00000000      -0.00957938      -0.00151537       0.02348558       0.00000000
Ag       0.01221445       0.00206584      12.10878186       0.00000000       0.01307509       0.00061892      -0.01211990       0.00000000
Ag       0.01148876       2.89479575      12.10532910       0.00000000      -0.00517645       0.00144221       0.00866887       0.00000000
Ag       0.01047056       5.78588666      12.10563299       0.00000000      -0.00530053       0.00040607       0.00905500       0.00000000
Ag       4.72272520       1.44603337      11.17433877       0.00000000       0.07100252       0.00188230       0.47678321       0.00000000
Ag       4.72272520       4.33810010      11.17433877       0.00000000       0.03649714       0.00228326       0.46017384       0.00000000
Ag       4.72272520       7.23016684      11.17433877       0.00000000       0.07058942       0.00003878       0.47991201       0.00000000
Ag       2.36136260       0.00000000      10.33947102       0.00000000       0.00482009       0.00282407       0.29208129       0.00000000
Ag       2.36136260       2.89206674      10.33947102       0.00000000       0.02511850       0.01745666       0.32858931       0.00000000
Ag       2.36136260       5.78413347      10.33947102       0.00000000       0.02449092      -0.01311057       0.32807848       0.00000000
Ag      -0.00000000       1.44603337       9.50460326       0.00000000      -0.10114133      -0.00910932       0.06808221       0.00000000
Ag      -0.00000000       4.33810010       9.50460326       0.00000000      -0.10582323       0.00085306       0.06947260       0.00000000
Ag      -0.00000000       7.23016684       9.50460326       0.00000000      -0.10087513       0.01079863       0.06787405       0.00000000
Ag       4.72272520       0.00000000       8.66973551       0.00000000      -0.09874806      -0.00006858      -0.39667286       0.00000000
Ag       4.72272520       2.89206674       8.66973551       0.00000000      -0.09787744      -0.00780274      -0.38330076       0.00000000
Ag       4.72272520       5.78413347       8.66973551       0.00000000      -0.09815633       0.00778391      -0.38319470       0.00000000
Ag       2.36136260       1.44603337       7.83486775       0.00000000       0.06760298       0.00215954      -0.33032617       0.00000000
Ag       2.36136260       4.33810010       7.83486775       0.00000000       0.05216427      -0.00009586      -0.32896611       0.00000000
Ag       2.36136260       7.23016684       7.83486775       0.00000000       0.06782327      -0.00222410      -0.32978423       0.00000000
Ag       0.00000000       0.00000000       7.00000000       0.00000000      -0.04457680       0.00004762      -0.11467744       0.00000000
Ag       0.00000000       2.89206674       7.00000000       0.00000000      -0.04181738       0.01095948      -0.10900137       0.00000000
Ag       0.00000000       5.78413347       7.00000000       0.00000000      -0.04207612      -0.01101904      -0.10892261       0.00000000
C        4.77989670       4.27115143      18.90943486       0.00000000       0.00298823      -0.04400020       0.00159888       0.00000000
O        5.95035837       4.25226666      19.34626385       0.00000000      -0.01492726       0.00891574      -0.00705374       0.00000000
O        3.66084984       4.24517813      19.46232939       0.00000000       0.01869629       0.02616758       0.00424324       0.00000000
