60
Lattice="7.084087802956708 0.0 0.0 0.0 14.460333675264895 0.0 0.0 0.0 28.0" Properties=species:S:1:pos:R:3:initial_magmoms:R:1:forces:R:3:magmoms:R:1 adsorbate_info="_JSON {\"sites\": {}}" energy=-134.3957256560613 dipole="-53.33738875640589 -18.99766056854839 8.571797421998317" magmom=0.0 pbc="T T F"
Ag       4.78106973       1.44603337      16.38523257       0.00000000       0.01692771       0.00000001      -0.04540640       0.00000000
Ag       4.78106999       4.33810010      16.38523254       0.00000000       0.01692750       0.00000002      -0.04540652       0.00000000
Ag       4.78106973       7.23016684      16.38523257       0.00000000       0.01692769       0.00000000      -0.04540642       0.00000000
Ag       2.40139653       0.00000000      15.64726929       0.00000000       0.00442845       0.00000000      -0.02868338       0.00000000
Ag       2.40139663       2.89206676      15.64726926       0.00000000       0.00442840      -0.00000006      -0.02868334       0.00000000
Ag       2.40139663       5.78413344      15.64726926       0.00000000       0.00442834       0.00000005      -0.02868338       0.00000000
Ag       0.07530284       1.44603340      14.77877659       0.00000000       0.02103277       0.00000002      -0.01356001       0.00000000
Ag       0.07530304       4.33810010      14.77877642       0.00000000       0.02103250       0.00000007      -0.01356006       0.00000000
Ag       0.07530284       7.23016680      14.77877659       0.00000000       0.02103288       0.00000000      -0.01356004       0.00000000
Ag       4.79874679       0.00000000      13.80431612       0.00000000       0.01380719       0.00000000       0.02944546       0.00000000
Ag       4.79874689       2.89206676      13.80431597       0.00000000       0.01380706      -0.00000005       0.02944554       0.00000000
Ag       4.79874689       5.78413345      13.80431597       0.00000000       0.01380709       0.00000004       0.02944560       0.00000000
Ag       2.40318662       1.44603340      12.98832008       0.00000000      -0.01537660       0.00000001      -0.02903536       0.00000000
Ag       2.40318668       4.33810010      12.98831999       0.00000000      -0.01537665      -0.00000001      -0.02903543       0.00000000
Ag       2.40318662       7.23016680      12.98832008       0.00000000      -0.01537663       0.00000000      -0.02903539       0.00000000
Ag       0.03180555       0.00000000      12.09939335       0.00000000      -0.01408271       0.00000000      -0.01433557       0.00000000
Ag       0.03180552       2.89206670      12.09939324       0.00000000      -0.01408254       0.00000009      -0.01433540       0.00000000
Ag       0.03180552       5.78413351      12.09939324       0.00000000      -0.01408251      -0.00000014      -0.01433539       0.00000000
Ag       4.72272520       1.44603337      11.17433877       0.00000000       0.06969265      -0.00000006       0.40667730       0.00000000
Ag       4.72272520       4.33810010      11.17433877       0.00000000       0.06969268       0.00000000       0.40667721       0.00000000
Ag       4.72272520       7.23016684      11.17433877       0.00000000       0.06969258       0.00000000       0.40667726       0.00000000
Ag       2.36136260       0.00000000      10.33947102       0.00000000       0.04278665       0.00000000       0.30323697       0.00000000
Ag       2.36136260       2.89206674      10.33947102       0.00000000       0.04278666       0.00000003       0.30323694       0.00000000
Ag       2.36136260       5.78413347      10.33947102       0.00000000       0.04278665       0.00000004       0.30323696       0.00000000
Ag      -0.00000000       1.44603337       9.50460326       0.00000000      -0.10481190      -0.00000002       0.05321612       0.00000000
Ag      -0.00000000       4.33810010       9.50460326       0.00000000      -0.10481189       0.00000001       0.05321609       0.00000000
Ag      -0.00000000       7.23016684       9.50460326       0.00000000      -0.10481189       0.00000000       0.05321611       0.00000000
Ag       4.72272520       0.00000000       8.66973551       0.00000000      -0.10943004       0.00000000      -0.38416653       0.00000000
Ag       4.72272520       2.89206674       8.66973551       0.00000000      -0.10943003      -0.00000002      -0.38416654       0.00000000
Ag       4.72272520       5.78413347       8.66973551       0.00000000      -0.10943005      -0.00000001      -0.38416651       0.00000000
Ag       2.36136260       1.44603337       7.83486775       0.00000000       0.07859214      -0.00000003      -0.33480997       0.00000000
Ag       2.36136260       4.33810010       7.83486775       0.00000000       0.07859213      -0.00000002      -0.33480998       0.00000000
Ag       2.36136260       7.23016684       7.83486775       0.00000000       0.07859212       0.00000000      -0.33480999       0.00000000
Ag       0.00000000       0.00000000       7.00000000       0.00000000      -0.04628523       0.00000000      -0.12344543       0.00000000
Ag       0.00000000       2.89206674       7.00000000       0.00000000      -0.04628523       0.00000001      -0.12344544       0.00000000
Ag       0.00000000       5.78413347       7.00000000       0.00000000      -0.04628521       0.00000000      -0.12344545       0.00000000
Ag       4.78106973      10.12223357      16.38523257       0.00000000       0.01692750      -0.00000002      -0.04540652       0.00000000
Ag       2.40139653       8.67620021      15.64726929       0.00000000       0.00442834      -0.00000005      -0.02868338       0.00000000
Ag       0.07530284      10.12223361      14.77877659       0.00000000       0.02103250      -0.00000007      -0.01356006       0.00000000
Ag       4.79874679       8.67620021      13.80431612       0.00000000       0.01380709      -0.00000004       0.02944560       0.00000000
Ag       2.40318662      10.12223361      12.98832008       0.00000000      -0.01537665       0.00000001      -0.02903543       0.00000000
Ag       0.03180555       8.67620021      12.09939335       0.00000000      -0.01408251       0.00000014      -0.01433539       0.00000000
Ag       4.72272520      10.12223357      11.17433877       0.00000000       0.06969268      -0.00000000       0.40667721       0.00000000
Ag       2.36136260       8.67620021      10.33947102       0.00000000       0.04278665      -0.00000004       0.30323696       0.00000000
Ag      -0.00000000      10.12223357       9.50460326       0.00000000      -0.10481189      -0.00000001       0.05321609       0.00000000
Ag       4.72272520       8.67620021       8.66973551       0.00000000      -0.10943005       0.00000001      -0.38416651       0.00000000
Ag       2.36136260      10.12223357       7.83486775       0.00000000       0.07859213       0.00000002      -0.33480998       0.00000000
Ag       0.00000000       8.67620021       7.00000000       0.00000000      -0.04628521      -0.00000000      -0.12344545       0.00000000
Ag       4.78106973      13.01430031      16.38523257       0.00000000       0.01692771      -0.00000001      -0.04540640       0.00000000
Ag       2.40139653      11.56826694      15.64726929       0.00000000       0.00442840       0.00000006      -0.02868334       0.00000000
Ag       0.07530284      13.01430034      14.77877659       0.00000000       0.02103277      -0.00000002      -0.01356001       0.00000000
Ag       4.79874679      11.56826694      13.80431612       0.00000000       0.01380706       0.00000005       0.02944554       0.00000000
Ag       2.40318662      13.01430034      12.98832008       0.00000000      -0.01537660      -0.00000001      -0.02903536       0.00000000
Ag       0.03180555      11.56826694      12.09939335       0.00000000      -0.01408254      -0.00000009      -0.01433540       0.00000000
Ag       4.72272520      13.01430031      11.17433877       0.00000000       0.06969265       0.00000006       0.40667730       0.00000000
Ag       2.36136260      11.56826694      10.33947102       0.00000000       0.04278666      -0.00000003       0.30323694       0.00000000
Ag      -0.00000000      13.01430031       9.50460326       0.00000000      -0.10481190       0.00000002       0.05321612       0.00000000
Ag       4.72272520      11.56826694       8.66973551       0.00000000      -0.10943003       0.00000002      -0.38416654       0.00000000
Ag       2.36136260      13.01430031       7.83486775       0.00000000       0.07859214       0.00000003      -0.33480997       0.00000000
Ag       0.00000000      11.56826694       7.00000000       0.00000000      -0.04628523      -0.00000001      -0.12344544       0.00000000
