63
Lattice="7.084087802956708 0.0 0.0 0.0 14.460333675264895 0.0 0.0 0.0 28.0" Properties=species:S:1:pos:R:3:initial_magmoms:R:1:forces:R:3:magmoms:R:1 adsorbate_info="_JSON {\"sites\": {}}" energy=-157.37525085975452 dipole="-49.05110852560488 -19.532387154040197 11.743890138966606" magmom=0.0 pbc="T T F"
Ag       4.79429180       1.45368592      16.44500181       0.00000000      -0.00658916      -0.00724451      -0.01921089       0.00000000
Ag       4.76927829       4.34263577      16.68776673       0.00000000      -0.00803737      -0.00780972      -0.01847535       0.00000000
Ag       4.80036668       7.23617529      16.44870922       0.00000000      -0.00970334       0.01488855      -0.02236297       0.00000000
Ag       2.40577492       0.01541219      15.63174583       0.00000000       0.02062938      -0.00623284       0.00630883       0.00000000
Ag       2.41637061       2.90877299      15.61112090       0.00000000       0.01739490       0.00668354      -0.00614377       0.00000000
Ag       2.41806481       5.79349588      15.61880711       0.00000000       0.00558199      -0.00829962      -0.01075999       0.00000000
Ag       0.07664267       1.46103086      14.78273323       0.00000000       0.00212164      -0.00504972      -0.00239067       0.00000000
Ag       0.03694855       4.34711559      14.82884817       0.00000000       0.00601044       0.00271966       0.02062876       0.00000000
Ag       0.08112124       7.23406606      14.78125921       0.00000000      -0.00994490       0.00861528      -0.00244240       0.00000000
Ag       4.78913877       0.01809761      13.86085390       0.00000000       0.01728419      -0.00939178       0.00237910       0.00000000
Ag       4.78775724       2.91672323      13.88408451       0.00000000       0.00547548       0.00146718       0.00389166       0.00000000
Ag       4.78753809       5.77166534      13.89296878       0.00000000       0.00444336      -0.00311851      -0.00169350       0.00000000
Ag       2.39664273       1.45893482      12.96626548       0.00000000       0.01891392       0.00775206       0.00060110       0.00000000
Ag       2.38752382       4.35202682      12.98986746       0.00000000       0.00864969       0.00487921       0.01091193       0.00000000
Ag       2.39787251       7.23755856      12.96624177       0.00000000       0.01887022       0.00398123      -0.00194549       0.00000000
Ag       0.01430138       0.00539499      12.10625605       0.00000000      -0.00578969      -0.00312767      -0.00546257       0.00000000
Ag       0.01131602       2.89554106      12.10693603       0.00000000      -0.00474732       0.01191868       0.00343619       0.00000000
Ag       0.00972043       5.78698725      12.10794324       0.00000000      -0.00610976      -0.00707638       0.00170812       0.00000000
Ag       4.72272520       1.44603337      11.17433877       0.00000000       0.05871676       0.01010180       0.47383125       0.00000000
Ag       4.72272520       4.33810010      11.17433877       0.00000000       0.03642480       0.00489368       0.47113649       0.00000000
Ag       4.72272520       7.23016684      11.17433877       0.00000000       0.05751604      -0.00731428       0.47835381       0.00000000
Ag       2.36136260       0.00000000      10.33947102       0.00000000       0.02228310      -0.00103954       0.30260222       0.00000000
Ag       2.36136260       2.89206674      10.33947102       0.00000000       0.02457184       0.01871287       0.33660854       0.00000000
Ag       2.36136260       5.78413347      10.33947102       0.00000000       0.02282064      -0.01109690       0.33618857       0.00000000
Ag      -0.00000000       1.44603337       9.50460326       0.00000000      -0.10064151       0.00197648       0.06184224       0.00000000
Ag      -0.00000000       4.33810010       9.50460326       0.00000000      -0.10470660       0.00235721       0.07442879       0.00000000
Ag      -0.00000000       7.23016684       9.50460326       0.00000000      -0.10087198      -0.00028529       0.06160469       0.00000000
Ag       4.72272520       0.00000000       8.66973551       0.00000000      -0.10770717      -0.00851154      -0.38672068       0.00000000
Ag       4.72272520       2.89206674       8.66973551       0.00000000      -0.10399502      -0.00341216      -0.38642037       0.00000000
Ag       4.72272520       5.78413347       8.66973551       0.00000000      -0.10390859       0.00358206      -0.38667406       0.00000000
Ag       2.36136260       1.44603337       7.83486775       0.00000000       0.06524634       0.00259691      -0.32474431       0.00000000
Ag       2.36136260       4.33810010       7.83486775       0.00000000       0.05915598       0.00015137      -0.32522139       0.00000000
Ag       2.36136260       7.23016684       7.83486775       0.00000000       0.06510467      -0.00208411      -0.32451008       0.00000000
Ag       0.00000000       0.00000000       7.00000000       0.00000000      -0.03871163      -0.00083420      -0.11977351       0.00000000
Ag       0.00000000       2.89206674       7.00000000       0.00000000      -0.03318783       0.00369391      -0.12585035       0.00000000
Ag       0.00000000       5.78413347       7.00000000       0.00000000      -0.03335632      -0.00337728      -0.12513225       0.00000000
C        4.81078600       4.26461309      18.95951973       0.00000000       0.02399839       0.01042137      -0.02859850       0.00000000
O        5.98468354       4.25340166      19.39866840       0.00000000       0.03442941      -0.00342817       0.00647948       0.00000000
O        3.70464180       4.24934651      19.54553984       0.00000000      -0.04074672      -0.00947060       0.01575694       0.00000000
Ag       4.78542169      10.13029084      16.44497932       0.00000000       0.00297704       0.00742545      -0.02287327       0.00000000
Ag       2.40975919       8.67829117      15.63824144       0.00000000       0.01207536       0.01399786       0.00455755       0.00000000
Ag       0.07784683      10.12703221      14.78895501       0.00000000      -0.02217781       0.00674016      -0.00784478       0.00000000
Ag       4.78985758       8.66898018      13.86394144       0.00000000       0.01854506       0.01589467      -0.00094915       0.00000000
Ag       2.39394556      10.12832241      12.97086455       0.00000000       0.02126307       0.00522570       0.00502462       0.00000000
Ag       0.01338660       8.67621988      12.10588566       0.00000000      -0.00417518       0.00835455      -0.00503683       0.00000000
Ag       4.72272520      10.12223357      11.17433877       0.00000000       0.05236133       0.00145041       0.47903397       0.00000000
Ag       2.36136260       8.67620021      10.33947102       0.00000000       0.02216332       0.00826917       0.30006827       0.00000000
Ag      -0.00000000      10.12223357       9.50460326       0.00000000      -0.10568643      -0.00544675       0.07083263       0.00000000
Ag       4.72272520       8.67620021       8.66973551       0.00000000      -0.10771220       0.00893642      -0.38632830       0.00000000
Ag       2.36136260      10.12223357       7.83486775       0.00000000       0.08319479       0.00520397      -0.34243350       0.00000000
Ag       0.00000000       8.67620021       7.00000000       0.00000000      -0.03898984       0.00098923      -0.12000756       0.00000000
Ag       4.77760735      13.02705615      16.44041496       0.00000000       0.01628556      -0.02639510      -0.01196869       0.00000000
Ag       2.40091904      11.57478265      15.63569550       0.00000000       0.03861018       0.00626724       0.01609387       0.00000000
Ag       0.07374067      13.02628477      14.79064195       0.00000000      -0.01457916       0.00101428      -0.00570571       0.00000000
Ag       4.78621954      11.57185086      13.85496851       0.00000000       0.02632150       0.00770954       0.02006323       0.00000000
Ag       2.39270438      13.02431146      12.97041152       0.00000000       0.02270947       0.00473288       0.00764379       0.00000000
Ag       0.01401530      11.57077443      12.10557648       0.00000000      -0.00463480       0.00286445      -0.00195854       0.00000000
Ag       4.72272520      13.01430031      11.17433877       0.00000000       0.05300939       0.00252371       0.48118164       0.00000000
Ag       2.36136260      11.56826694      10.33947102       0.00000000       0.04047315       0.00220032       0.30724834       0.00000000
Ag      -0.00000000      13.01430031       9.50460326       0.00000000      -0.10492435       0.00709318       0.07080857       0.00000000
Ag       4.72272520      11.56826694       8.66973551       0.00000000      -0.11069570      -0.00071588      -0.37720961       0.00000000
Ag       2.36136260      13.01430031       7.83486775       0.00000000       0.08235681      -0.00613308      -0.34126107       0.00000000
Ag       0.00000000      11.56826694       7.00000000       0.00000000      -0.05916276      -0.00049310      -0.10791133       0.00000000
