60
Lattice="9.058037866999674 0.0 0.0 0.0 10.459321201684167 0.0 0.0 0.0 25.0" Properties=species:S:1:pos:R:3:tags:I:1:initial_magmoms:R:1:forces:R:3 adsorbate_info="_JSON {\"cell\": [[2.9839906166072305, 0.0], [1.4919953083036153, 2.5842116786362523]], \"sites\": {\"bridge\": [0.5, 0.0], \"hcp\": [0.6666666666666666, 0.6666666666666666], \"fcc\": [0.3333333333333333, 0.3333333333333333], \"ontop\": [0, 0]}}" energy=-204.70923115508626 dipole="-12.413943889739802 3.135174627227698 1.9360724113694237" pbc="T T F"
Au       2.18315511       1.30741515       7.00000000        3       0.00000000      -0.02989747      -0.01498513       0.01626949
Au       5.20250107       1.30741515       7.00000000        3       0.00000000      -0.05283066      -0.01148681       0.04589012
Au       8.22184702       1.30741515       7.00000000        3       0.00000000      -0.05747382       0.00156002      -0.00124001
Au       0.67348213       3.92224545       7.00000000        3       0.00000000      -0.05003826       0.02040690      -0.01277058
Au       3.69282809       3.92224545       7.00000000        3       0.00000000      -0.03691827      -0.01166506       0.03760798
Au       6.71217404       3.92224545       7.00000000        3       0.00000000      -0.05368449      -0.01396421       0.03617607
Au       0.66519505       2.20540253       9.40955589        2       0.00000000      -0.00000166      -0.01706127       0.00702474
Au       3.68254825       2.16256061       9.44005443        2       0.00000000       0.00340622      -0.01028738       0.00333646
Au       6.69890197       2.16508477       9.43992004        2       0.00000000      -0.00438473      -0.00695493       0.00297549
Au       2.17341288       4.79300855       9.43222031        2       0.00000000       0.00130191      -0.01957173       0.02264827
Au       5.19108550       4.77146706       9.43882530        2       0.00000000      -0.00011702       0.00678154       0.02234682
Au       8.20984113       4.79607824       9.42945244        2       0.00000000      -0.00226286      -0.01993593       0.03240587
Au       0.66004949       0.47001373      11.84227636        1       0.00000000       0.00061629      -0.01413360       0.00103785
Au       3.67884380       0.46447622      11.85375773        1       0.00000000       0.00368327      -0.00442396      -0.00520988
Au       6.70061796       0.46479584      11.85681829        1       0.00000000      -0.00398461      -0.00613223      -0.01911730
Au       2.16845062       3.07951384      11.85307001        1       0.00000000       0.00562413       0.00513501      -0.01604074
Au       5.18987207       3.07658976      11.86143004        1       0.00000000      -0.00086953       0.01563432      -0.03779668
Au       8.21070688       3.07921660      11.84773254        1       0.00000000      -0.00571795       0.00611118      -0.00156574
O        6.70463340       0.60909066      16.10701715        0       0.00000000       0.01000591      -0.01346631       0.02123129
H        7.19535375      -0.22348163      16.31058538        0       0.00000000       0.00604399      -0.00493964       0.01564507
H        6.70040188       0.64024824      15.13388207        0       0.00000000      -0.00550201       0.00314013      -0.00326250
O        8.16604327       3.34944229      16.78305544        0       0.00000000      -0.00931291       0.02154660      -0.03564274
H        7.74383693       2.49787186      16.54423221        0       0.00000000       0.00125560      -0.00375549       0.03327638
H        9.08848661       3.26042274      16.46455068        0       0.00000000       0.01612082       0.00725944       0.02924278
O        3.52582314       0.62523293      16.73110797        0       0.00000000      -0.00265966       0.01345070      -0.04644176
H        3.16261998      -0.23871073      16.44426159        0       0.00000000      -0.01202896      -0.00814848       0.01312740
H        4.47689995       0.57821826      16.50865956        0       0.00000000       0.01327251       0.00558553       0.02105974
O        2.13268367       3.17065544      15.92630152        0       0.00000000      -0.00064289      -0.00440684       0.02986969
H        2.58044792       2.32282751      16.15891684        0       0.00000000      -0.00187482       0.00605073       0.01610361
H        2.13597845       3.17773674      14.95165048        0       0.00000000       0.00655750      -0.00868757      -0.00008200
Au       2.18315511       6.53707575       7.00000000        3       0.00000000      -0.03401730      -0.01365199       0.01848478
Au       5.20250107       6.53707575       7.00000000        3       0.00000000      -0.05069259      -0.00961650       0.04410471
Au       8.22184702       6.53707575       7.00000000        3       0.00000000      -0.05633049      -0.01044672       0.01480591
Au       0.67348213       9.15190605       7.00000000        3       0.00000000      -0.04497445       0.01299346      -0.00781182
Au       3.69282809       9.15190605       7.00000000        3       0.00000000      -0.03661346      -0.01117959       0.03830825
Au       6.71217404       9.15190605       7.00000000        3       0.00000000      -0.05903069      -0.01852532       0.03436747
Au       0.66234827       7.43221232       9.41178460        2       0.00000000      -0.00299103      -0.00960259       0.00995534
Au       3.68138947       7.39132234       9.43945900        2       0.00000000       0.00316999      -0.00810110       0.00703394
Au       6.70128491       7.39331929       9.43922431        2       0.00000000      -0.00100520      -0.00491859       0.00733952
Au       2.17440543      10.02286512       9.43234273        2       0.00000000      -0.00687180      -0.02717754       0.01939260
Au       5.19120448       9.99963516       9.44033024        2       0.00000000      -0.00060654       0.01783836       0.00729507
Au       8.20896516      10.03920536       9.41948515        2       0.00000000       0.00718187      -0.01227312       0.00801668
Au       0.66105226       5.69842016      11.84607153        1       0.00000000      -0.00353188      -0.00259039      -0.01574077
Au       3.68100013       5.69328413      11.85425667        1       0.00000000      -0.01086678      -0.00103376      -0.00885408
Au       6.69783944       5.69343815      11.85769004        1       0.00000000       0.01304877       0.00222154      -0.02412229
Au       2.16879753       8.30966393      11.85452797        1       0.00000000      -0.00126519       0.00009216      -0.02819698
Au       5.18983428       8.30920057      11.85465190        1       0.00000000       0.00099474      -0.00630722      -0.00369969
Au       8.21006234       8.31097982      11.84668415        1       0.00000000       0.00063085       0.00033655      -0.01422150
O        6.70549814       5.83841878      16.10572806        0       0.00000000       0.01015507      -0.01231292       0.02275262
H        7.19539204       5.00616151      16.31246837        0       0.00000000       0.00688217      -0.00475365       0.00604637
H        6.70320531       5.86868877      15.13258323        0       0.00000000      -0.00150307      -0.00322726      -0.00297534
O        8.16549510       8.57979899      16.78187022        0       0.00000000      -0.00847115       0.01981769      -0.03308159
H        7.74352242       7.72783020      16.54404240        0       0.00000000       0.00089800      -0.00365384       0.03264239
H        9.08830331       8.49004263      16.46463528        0       0.00000000       0.01604336       0.00798209       0.02896063
O        3.52591716       5.85507695      16.73130135        0       0.00000000      -0.00160390       0.01221826      -0.04742938
H        3.16258255       4.99120745      16.44451173        0       0.00000000      -0.01375321      -0.00935840       0.01371128
H        4.47681778       5.80784458      16.50822310        0       0.00000000       0.01457648       0.00701491       0.02096521
O        2.13259211       8.40016888      15.92638029        0       0.00000000       0.00060505      -0.00674317       0.02740248
H        2.58058969       7.55263994      16.15947860        0       0.00000000      -0.00114147       0.00470005       0.02094987
H        2.13476108       8.40489711      14.95173489        0       0.00000000       0.00524802      -0.00601671      -0.00240159
