61
Lattice="9.058037866999674 0.0 0.0 0.0 10.459321201684167 0.0 0.0 0.0 25.0" Properties=species:S:1:pos:R:3:tags:I:1:initial_magmoms:R:1:forces:R:3 adsorbate_info="_JSON {\"cell\": [[2.9839906166072305, 0.0], [1.4919953083036153, 2.5842116786362523]], \"sites\": {\"bridge\": [0.5, 0.0], \"hcp\": [0.6666666666666666, 0.6666666666666666], \"fcc\": [0.3333333333333333, 0.3333333333333333], \"ontop\": [0, 0]}}" energy=-208.31065327662267 dipole="-9.347858344823697 -3.587883290248588 -1.3645290886687695" pbc="T T F"
Au       2.18315511       1.30741515       7.00000000        3       0.00000000      -0.04721225      -0.01619219       0.04773016
Au       5.20250107       1.30741515       7.00000000        3       0.00000000      -0.05322684      -0.01192969       0.04552752
Au       8.22184702       1.30741515       7.00000000        3       0.00000000      -0.04097604      -0.01692745       0.04582625
Au       0.67348213       3.92224545       7.00000000        3       0.00000000      -0.05064432      -0.01469547       0.03766656
Au       3.69282809       3.92224545       7.00000000        3       0.00000000      -0.04204716      -0.01542304       0.03650579
Au       6.71217404       3.92224545       7.00000000        3       0.00000000      -0.04936715      -0.01682305       0.03833502
Au       0.66189375       2.15809569       9.43863880        2       0.00000000      -0.00289563      -0.00771599       0.00393126
Au       3.68077627       2.15864159       9.43855165        2       0.00000000       0.00539365      -0.00547696       0.00916691
Au       6.70100802       2.15701902       9.43779363        2       0.00000000      -0.00165276       0.00463402       0.01188142
Au       2.17171152       4.77222458       9.43793974        2       0.00000000      -0.00070864       0.01092793       0.00361662
Au       5.19047183       4.77314428       9.43704430        2       0.00000000      -0.00184219      -0.00292722       0.00723431
Au       8.20983895       4.77274760       9.43725618        2       0.00000000       0.00499422       0.00247058       0.00964978
Au       0.66208873       0.46177753      11.85709673        1       0.00000000      -0.00558040       0.01236492      -0.01623531
Au       3.67915937       0.46194446      11.85651717        1       0.00000000       0.00702397       0.01183013      -0.01566132
Au       6.69815919       0.46390077      11.85935556        1       0.00000000      -0.00079131       0.00479608      -0.02108199
Au       2.16943529       3.07754536      11.85603953        1       0.00000000       0.00254034       0.00435169      -0.01288095
Au       5.18999164       3.07794126      11.85402262        1       0.00000000       0.00174172      -0.00314261      -0.00994319
Au       8.20926174       3.07801974      11.85475634        1       0.00000000      -0.00251597       0.00123881      -0.01084088
O        6.74192127       0.98203239      15.68614628        0       0.00000000       0.00435341       0.00217151       0.00610240
H        7.19159109       0.13490181      15.97742217        0       0.00000000      -0.00973828      -0.01242910       0.02001127
H        6.63447080       0.89129667      14.71860821        0       0.00000000      -0.00578321      -0.00284467       0.02706242
O        8.17281366       3.03191057      16.29163847        0       0.00000000       0.00374528       0.00691162      -0.01546853
H        7.64988116       2.17386477      16.00962862        0       0.00000000      -0.01058564       0.00509559       0.04159559
H        9.14890968       3.00249774      15.97065147        0       0.00000000      -0.00317804       0.02087853       0.00180413
O        3.21376341       0.95709851      16.55390137        0       0.00000000      -0.01587926       0.02331891      -0.02330147
H        2.85291260       0.11126345      16.20555173        0       0.00000000      -0.00475418      -0.00303061       0.01910931
H        4.14868372       0.96911677      16.27726644        0       0.00000000      -0.01946593      -0.00832441       0.01580418
O        1.63449061       3.04172442      15.53191450        0       0.00000000       0.03588122       0.02072298      -0.01148446
H        2.18183215       2.28665805      15.88563633        0       0.00000000       0.00844861      -0.00857159       0.01136100
H        1.70792310       2.97083310      14.55759376        0       0.00000000      -0.00530536      -0.00839991       0.02735420
Au       2.18315511       6.53707575       7.00000000        3       0.00000000      -0.04871725      -0.01458769       0.04129880
Au       5.20250107       6.53707575       7.00000000        3       0.00000000      -0.05099487      -0.01201343       0.03918021
Au       8.22184702       6.53707575       7.00000000        3       0.00000000      -0.04170597      -0.01078671       0.04087311
Au       0.67348213       9.15190605       7.00000000        3       0.00000000      -0.05379585      -0.01238278       0.04604439
Au       3.69282809       9.15190605       7.00000000        3       0.00000000      -0.04269700      -0.01126262       0.03933934
Au       6.71217404       9.15190605       7.00000000        3       0.00000000      -0.04499740      -0.01459069       0.04274371
Au       0.66196258       7.38637636       9.43930448        2       0.00000000       0.00131397      -0.00248006       0.01020947
Au       3.68105335       7.38772088       9.43815975        2       0.00000000      -0.00039177      -0.00287149       0.00606314
Au       6.70024115       7.38690128       9.43770003        2       0.00000000       0.00117021       0.01154071       0.00866209
Au       2.17180136      10.00061578       9.43950323        2       0.00000000      -0.00032670       0.01264689       0.00067064
Au       5.19056646      10.00158922       9.43935964        2       0.00000000       0.00001622       0.00439926       0.01019976
Au       8.21019586      10.00169083       9.43975148        2       0.00000000       0.00043920       0.00658935       0.00481196
Au       0.66022156       5.69212100      11.85780583        1       0.00000000       0.00199464       0.00305353      -0.01697046
Au       3.67905470       5.69344913      11.85684267        1       0.00000000      -0.00305148       0.00499506      -0.02236000
Au       6.70093822       5.69353158      11.85493143        1       0.00000000      -0.00565440      -0.00412507      -0.02824333
Au       2.17042606       8.30901569      11.85800501        1       0.00000000      -0.00282643      -0.00859635      -0.01257780
Au       5.19044365       8.30703375      11.85418432        1       0.00000000      -0.00716567       0.00218544      -0.00566366
Au       8.20734170       8.30841724      11.85396960        1       0.00000000       0.01323246      -0.00234501      -0.00670414
O        6.88649606       5.10031044      15.39440941        0       0.00000000       0.00498247      -0.00495469      -0.01972500
H        7.67435875       3.86076197      15.92009049        0       0.00000000       0.00559355      -0.00777322       0.01217851
H        6.96687789       5.17622821      14.41836005        0       0.00000000       0.00695403       0.00382056       0.04756552
O        8.02368076       9.20019967      16.60129130        0       0.00000000      -0.00127418       0.00853640      -0.03474112
H        7.58557359       8.35378539      16.40060227        0       0.00000000      -0.00728897       0.00718164       0.01775670
H        8.92338038       9.11233199      16.20818353        0       0.00000000       0.02119932       0.00245988       0.02989418
O        4.00611726       5.38260805      15.60400371        0       0.00000000       0.02455004      -0.02146329      -0.02061064
H        3.38154002       4.64871786      15.77083594        0       0.00000000       0.00497521      -0.01276286       0.01963085
H        5.91111980       5.05996571      15.55689484        0       0.00000000       0.00482232       0.02690933       0.01181927
O        1.68687674       9.07262582      15.54271211        0       0.00000000      -0.01405742       0.00456562      -0.03098793
H        2.04308108       8.21569499      15.84342863        0       0.00000000       0.01724623      -0.00059250       0.00471655
H        1.72918521       9.02162267      14.56546481        0       0.00000000       0.00065963      -0.02548152       0.03995152
H        3.81830783       5.63463828      14.67752190        0       0.00000000       0.00040188       0.00589266       0.03841672
61
Lattice="9.058037866999674 0.0 0.0 0.0 10.459321201684167 0.0 0.0 0.0 25.0" Properties=species:S:1:pos:R:3:tags:I:1:initial_magmoms:R:1:forces:R:3 adsorbate_info="_JSON {\"cell\": [[2.9839906166072305, 0.0], [1.4919953083036153, 2.5842116786362523]], \"sites\": {\"bridge\": [0.5, 0.0], \"hcp\": [0.6666666666666666, 0.6666666666666666], \"fcc\": [0.3333333333333333, 0.3333333333333333], \"ontop\": [0, 0]}}" energy=-208.11397014726103 dipole="-11.553002323064096 7.737269465252697 -1.4422448823339509" pbc="T T F"
Au       2.18315511       1.30741515       7.00000000        3       0.00000000      -0.05409560      -0.01408950       0.04452596
Au       5.20250107       1.30741515       7.00000000        3       0.00000000      -0.04386397      -0.01149870       0.04454902
Au       8.22184702       1.30741515       7.00000000        3       0.00000000      -0.04369300      -0.01666869       0.04564348
Au       0.67348213       3.92224545       7.00000000        3       0.00000000      -0.05226027      -0.01514550       0.03675669
Au       3.69282809       3.92224545       7.00000000        3       0.00000000      -0.04372712      -0.01415032       0.03409466
Au       6.71217404       3.92224545       7.00000000        3       0.00000000      -0.04564053      -0.01794373       0.04422503
Au       0.66036337       2.15890852       9.43916460        2       0.00000000       0.01395101      -0.00592807       0.00510481
Au       3.68059106       2.15921356       9.43502794        2       0.00000000       0.00801670      -0.00336277       0.02456047
Au       6.70239548       2.15745872       9.43954081        2       0.00000000      -0.02112996       0.00753708       0.00492572
Au       2.17220785       4.77510013       9.43687625        2       0.00000000       0.00073210      -0.00146251       0.00978204
Au       5.18900670       4.77662075       9.43627663        2       0.00000000       0.00286548      -0.00565878       0.00466433
Au       8.21129617       4.77285169       9.44165954        2       0.00000000      -0.00360669       0.00336713      -0.01190698
Au       0.66075892       0.46585859      11.85941834        1       0.00000000       0.00873526      -0.00723781      -0.02094993
Au       3.67833865       0.46347155      11.85644047        1       0.00000000       0.00531920       0.00580362      -0.02905953
Au       6.70086105       0.46278978      11.85625717        1       0.00000000      -0.01450477      -0.00075009      -0.01517992
Au       2.16824917       3.07838345      11.85642947        1       0.00000000       0.00705802      -0.00022684      -0.02888724
Au       5.19124989       3.08061966      11.85191230        1       0.00000000      -0.01109348      -0.01179332      -0.02198548
Au       8.20823451       3.08002504      11.85464228        1       0.00000000       0.00507893      -0.00744088      -0.00085450
O        6.74294181      -0.18864575      15.89688715        0       0.00000000       0.07089600       0.07366654      -0.05318611
H        7.24526150      -1.00113178      16.16235706        0       0.00000000       0.00694205      -0.02126085       0.06522296
H        6.79773956      -0.19658210      14.92321986        0       0.00000000      -0.02820799       0.03004957       0.02390277
O        8.05025302       2.44667797      16.67543753        0       0.00000000      -0.02298599       0.06860147      -0.04572627
H        7.72519475       1.55279355      16.43247940        0       0.00000000      -0.04379396      -0.05541912      -0.02110138
H        9.00279238       2.42624516      16.47301066        0       0.00000000      -0.03569425       0.00249012      -0.00712241
O        3.79935573       0.11838242      16.50579942        0       0.00000000       0.01221051       0.05811451      -0.02355288
H        3.31722292      -0.69320232      16.24336696        0       0.00000000       0.01519146      -0.01181090      -0.00137660
H        4.74727507      -0.05892210      16.31246491        0       0.00000000      -0.02213918      -0.01260087      -0.01778039
O        2.63040139       2.37079359      15.46374399        0       0.00000000       0.04384592      -0.03075973      -0.04792992
H        3.10326815       1.55982921      15.82371433        0       0.00000000       0.05762269      -0.03009652       0.05652634
H        2.36750058       2.12587208      14.55044003        0       0.00000000       0.00126913       0.01840345       0.07429866
Au       2.18315511       6.53707575       7.00000000        3       0.00000000      -0.05196948      -0.01244159       0.03591035
Au       5.20250107       6.53707575       7.00000000        3       0.00000000      -0.04499226      -0.00862513       0.03571600
Au       8.22184702       6.53707575       7.00000000        3       0.00000000      -0.04427898      -0.01245144       0.04703973
Au       0.67348213       9.15190605       7.00000000        3       0.00000000      -0.05490966      -0.01285891       0.04610963
Au       3.69282809       9.15190605       7.00000000        3       0.00000000      -0.04206944      -0.01191828       0.03411692
Au       6.71217404       9.15190605       7.00000000        3       0.00000000      -0.04457737      -0.01575893       0.04540542
Au       0.66281338       7.38641947       9.44062210        2       0.00000000      -0.00894653       0.00614933      -0.00075918
Au       3.68054740       7.38574975       9.43936184        2       0.00000000       0.00749187       0.00117745       0.01587724
Au       6.70023408       7.38758597       9.43982488        2       0.00000000       0.00162948      -0.00240069       0.00606766
Au       2.17174728      10.00015108       9.43816139        2       0.00000000      -0.00424614       0.01083633       0.01868409
Au       5.19100597      10.00144393       9.43896131        2       0.00000000      -0.00936995       0.00707973       0.01868760
Au       8.20978236      10.00387310       9.43992164        2       0.00000000       0.01443152      -0.01283383       0.00627773
Au       0.65909145       5.69430209      11.85809757        1       0.00000000       0.01550022      -0.00285077      -0.00763251
Au       3.67930999       5.68886264      11.87574582        1       0.00000000      -0.00285531       0.00907025      -0.05433477
Au       6.70150507       5.69158072      11.85753624        1       0.00000000      -0.01446479       0.01098936      -0.01462349
Au       2.16929885       8.30597085      11.86015597        1       0.00000000       0.00807257       0.00532420      -0.02344826
Au       5.19014417       8.30811203      11.85628654        1       0.00000000      -0.00793778      -0.00078249      -0.01975608
Au       8.20900787       8.30792616      11.85664245        1       0.00000000       0.00054301       0.00881275      -0.01490772
O        6.52610529       4.65491895      15.57377922        0       0.00000000      -0.05195447      -0.03871346      -0.03106718
H        7.04974011       3.88130286      15.90618460        0       0.00000000      -0.02017776      -0.06275812       0.05658954
H        6.88369324       4.82623630      14.68029440        0       0.00000000       0.00163939       0.00180078       0.02420102
O        8.24425671       7.99753272      16.72959969        0       0.00000000      -0.00688782       0.04485953      -0.02299554
H        7.87660665       7.13047766      16.48322541        0       0.00000000       0.01539169       0.00200671       0.00623846
H        9.16018429       7.99923837      16.36549239        0       0.00000000      -0.05445674      -0.01517743       0.02812594
O        3.90257949       4.51077319      15.26893885        0       0.00000000       0.00449086      -0.00058730      -0.09946901
H        3.40730085       3.52973241      15.37728600        0       0.00000000       0.03761398      -0.02264827       0.04081530
H        4.92091294       4.46521298      15.43245046        0       0.00000000       0.06559199      -0.01403852       0.01353134
O        1.95940984       8.17043682      15.72278816        0       0.00000000      -0.00328348       0.04319520      -0.04582169
H        2.39233153       7.34080808      15.99936699        0       0.00000000      -0.00566718       0.02341948       0.00439393
H        1.94286108       8.11380040      14.74611037        0       0.00000000       0.02732436      -0.01826829       0.05935482
H        3.78486630       4.79564674      14.32329583        0       0.00000000       0.02545565      -0.01639879       0.10260793
61
Lattice="9.058037866999674 0.0 0.0 0.0 10.459321201684167 0.0 0.0 0.0 25.0" Properties=species:S:1:pos:R:3:tags:I:1:initial_magmoms:R:1:forces:R:3 adsorbate_info="_JSON {\"cell\": [[2.9839906166072305, 0.0], [1.4919953083036153, 2.5842116786362523]], \"sites\": {\"bridge\": [0.5, 0.0], \"hcp\": [0.6666666666666666, 0.6666666666666666], \"fcc\": [0.3333333333333333, 0.3333333333333333], \"ontop\": [0, 0]}}" energy=-207.44937400025296 dipole="-8.889307664653678 23.713790497882272 -0.05646303086506294" pbc="T T F"
Au       2.18315511       1.30741515       7.00000000        3       0.00000000      -0.05105601      -0.01478204       0.05526248
Au       5.20250107       1.30741515       7.00000000        3       0.00000000      -0.04486618      -0.01571707       0.05476780
Au       8.22184702       1.30741515       7.00000000        3       0.00000000      -0.04566611      -0.02487977       0.07807083
Au       0.67348213       3.92224545       7.00000000        3       0.00000000      -0.04489893      -0.00966510       0.03754060
Au       3.69282809       3.92224545       7.00000000        3       0.00000000      -0.04715695      -0.01410674       0.02330584
Au       6.71217404       3.92224545       7.00000000        3       0.00000000      -0.04921864      -0.01153727       0.04206317
Au       0.66270727       2.16091998       9.43597063        2       0.00000000       0.00350798       0.00105874       0.00395858
Au       3.68205859       2.16243604       9.43746263        2       0.00000000      -0.00003544       0.00067851      -0.00171593
Au       6.69890272       2.16070699       9.43704153        2       0.00000000      -0.00237665       0.00057727       0.00333601
Au       2.18471744       4.78397681       9.44693801        2       0.00000000      -0.00356416      -0.00216505      -0.00628791
Au       5.17688160       4.78324033       9.44499045        2       0.00000000       0.00297240      -0.00166027      -0.00579585
Au       8.21118871       4.77225495       9.44010138        2       0.00000000      -0.00008868       0.00398407       0.00257140
Au       0.65989655       0.46450720      11.85319763        1       0.00000000       0.00193782       0.00171937      -0.00392420
Au       3.67919706       0.46074703      11.84844327        1       0.00000000       0.00013433       0.00266409       0.00009405
Au       6.70043911       0.46260954      11.85270070        1       0.00000000      -0.00165645       0.00155106      -0.00383244
Au       2.15860709       3.06620911      11.84425387        1       0.00000000       0.01229558       0.02163254       0.01341564
Au       5.20069900       3.06706714      11.84536322        1       0.00000000      -0.01157770       0.02029426       0.01018357
Au       8.20869145       3.07840358      11.85146496        1       0.00000000       0.00035193       0.00006846      -0.00234844
O        6.69851404      -0.50554273      16.04477930        0       0.00000000      -0.00475304       0.00038180       0.00388315
H        7.14784165      -1.37026840      16.21075492        0       0.00000000      -0.00388529       0.00403700      -0.00083926
H        6.73887368      -0.40794092      15.07711216        0       0.00000000      -0.00228687       0.01028402       0.00022265
O        8.43427236       2.52914566      16.48565025        0       0.00000000       0.00925619       0.00885913      -0.00218729
H        8.05893719       1.64176703      16.33512476        0       0.00000000      -0.00359979      -0.01862363      -0.00602144
H        9.37112274       2.44822126      16.21213513        0       0.00000000      -0.01682697       0.00218956       0.00581154
O        3.70643188      -0.13734102      16.59230521        0       0.00000000      -0.00088714       0.00818070      -0.00062315
H        3.24971456      -0.95727806      16.31831250        0       0.00000000      -0.00402624       0.00579738       0.00454265
H        4.65562229      -0.31245815      16.41040850        0       0.00000000      -0.00198902       0.00440268      -0.00045091
O        2.45408061       2.31224637      15.59285644        0       0.00000000       0.04127698       0.03439316       0.00597943
H        2.90745453       1.50559499      15.94708651        0       0.00000000       0.01412941       0.03990905      -0.00077672
H        2.29531747       2.08824129      14.65610496        0       0.00000000      -0.00968163      -0.00370013      -0.01463346
Au       2.18315511       6.53707575       7.00000000        3       0.00000000      -0.04987209      -0.00564655       0.03540351
Au       5.20250107       6.53707575       7.00000000        3       0.00000000      -0.04572777      -0.00288617       0.03307270
Au       8.22184702       6.53707575       7.00000000        3       0.00000000      -0.04533781      -0.01154047       0.05831223
Au       0.67348213       9.15190605       7.00000000        3       0.00000000      -0.05014530      -0.01236234       0.05604228
Au       3.69282809       9.15190605       7.00000000        3       0.00000000      -0.04377464      -0.01670265       0.03550325
Au       6.71217404       9.15190605       7.00000000        3       0.00000000      -0.04745554      -0.01248601       0.05706620
Au       0.66481136       7.38546699       9.43965056        2       0.00000000       0.00191852      -0.00148887       0.00178239
Au       3.68137529       7.36234621       9.46738987        2       0.00000000      -0.00026070       0.01318940      -0.01419570
Au       6.69682480       7.38592328       9.43938814        2       0.00000000      -0.00172023      -0.00180495       0.00158083
Au       2.17326398       9.99845461       9.43899194        2       0.00000000      -0.00150322      -0.00182365       0.00268591
Au       5.18829610       9.99842319       9.44012169        2       0.00000000       0.00160675      -0.00143203       0.00219519
Au       8.21102750      10.00202247       9.43918713        2       0.00000000       0.00012560      -0.00014163      -0.00026687
Au       0.66012957       5.69492253      11.85219036        1       0.00000000       0.01591348      -0.00193491       0.00731691
Au       3.68239950       5.60787983      12.12933322        1       0.00000000       0.00338282      -0.03561229       0.09345166
Au       6.70114518       5.69331702      11.84786175        1       0.00000000      -0.01634533      -0.00143936       0.00907422
Au       2.17181440       8.30327517      11.85290684        1       0.00000000       0.00986422      -0.01277931       0.00416245
Au       5.18784902       8.30542002      11.85228864        1       0.00000000      -0.00978904      -0.01240517       0.00283068
Au       8.20908035       8.30879654      11.85201265        1       0.00000000      -0.00000921      -0.00153499      -0.00354310
O        6.75919960       4.79283512      15.54457321        0       0.00000000      -0.05061112      -0.01330564      -0.00352650
H        7.28516057       4.02476520      15.87779671        0       0.00000000      -0.05425573       0.00845846       0.00486618
H        6.97431553       4.81891815      14.59204007        0       0.00000000       0.01043759       0.00679732      -0.01563822
O        8.10908725       7.43804731      16.57819718        0       0.00000000      -0.00319509      -0.00193864       0.00290213
H        7.72319331       6.60295620      16.24155457        0       0.00000000      -0.00209586       0.00382284       0.00130305
H        9.04155160       7.42889453      16.27137312        0       0.00000000       0.00036661       0.00406851       0.00490373
O        3.83948018       4.90492120      15.19657185        0       0.00000000       0.04393408      -0.01637872      -0.46873300
H        3.41968191       4.01729195      15.39483873        0       0.00000000      -0.03656717       0.03153195      -0.16400196
H        4.80363916       4.80437675      15.44298193        0       0.00000000       0.02305021       0.05453758      -0.15596751
O        1.95047843       7.63214435      15.72695215        0       0.00000000      -0.00799122       0.00818811       0.00102077
H        2.45840843       6.82351842      15.92876260        0       0.00000000      -0.01450477       0.01963810       0.02245671
H        1.96508878       7.67304000      14.75212454        0       0.00000000      -0.00340465       0.00329045      -0.00464685
H        3.77037320       5.15360255      13.92455415        0       0.00000000       0.08369619      -0.22230908       0.61087998
61
Lattice="9.058037866999674 0.0 0.0 0.0 10.459321201684167 0.0 0.0 0.0 25.0" Properties=species:S:1:pos:R:3:tags:I:1:initial_magmoms:R:1:forces:R:3 adsorbate_info="_JSON {\"cell\": [[2.9839906166072305, 0.0], [1.4919953083036153, 2.5842116786362523]], \"sites\": {\"bridge\": [0.5, 0.0], \"hcp\": [0.6666666666666666, 0.6666666666666666], \"fcc\": [0.3333333333333333, 0.3333333333333333], \"ontop\": [0, 0]}}" energy=-207.3673123326808 dipole="-8.862766962436416 23.90928227521932 1.0162727119686843" pbc="T T F"
Au       2.18315511       1.30741515       7.00000000        3       0.00000000      -0.04475690      -0.01866573       0.05368992
Au       5.20250107       1.30741515       7.00000000        3       0.00000000      -0.05090364      -0.02079589       0.05272241
Au       8.22184702       1.30741515       7.00000000        3       0.00000000      -0.04612297      -0.03050592       0.08099430
Au       0.67348213       3.92224545       7.00000000        3       0.00000000      -0.04047187       0.00001673       0.04195015
Au       3.69282809       3.92224545       7.00000000        3       0.00000000      -0.04752698      -0.01335070       0.00394918
Au       6.71217404       3.92224545       7.00000000        3       0.00000000      -0.05292589      -0.00205766       0.04500010
Au       0.66179898       2.16072989       9.43475503        2       0.00000000       0.00168052       0.00063570       0.00324252
Au       3.68207798       2.16230512       9.43772150        2       0.00000000       0.00030894      -0.00014338       0.00074575
Au       6.69947354       2.16065120       9.43600480        2       0.00000000       0.00035806      -0.00018153       0.00262630
Au       2.18596775       4.78506408       9.44843843        2       0.00000000       0.00007291       0.00181640      -0.00024587
Au       5.17584084       4.78416981       9.44625179        2       0.00000000       0.00060561       0.00034196       0.00005607
Au       8.21123390       4.77107328       9.43912177        2       0.00000000      -0.00018572      -0.00059245       0.00127730
Au       0.65936230       0.46421681      11.85425693        1       0.00000000       0.00073381       0.00207831      -0.00238605
Au       3.67915723       0.45995446      11.84833985        1       0.00000000       0.00007175       0.00131025      -0.00254006
Au       6.70087575       0.46241055      11.85376624        1       0.00000000      -0.00011497       0.00161884      -0.00243456
Au       2.15442432       3.05945361      11.84017564        1       0.00000000       0.00101456       0.00267239       0.00194417
Au       5.20466911       3.06052720      11.84223759        1       0.00000000      -0.00119659       0.00307841      -0.00036545
Au       8.20861277       3.07828485      11.85203344        1       0.00000000       0.00090227      -0.00010772      -0.00311243
O        6.70007429      -0.50597277      16.04457607        0       0.00000000      -0.00465394      -0.00849553       0.00623868
H        7.14880169      -1.37130297      16.21094079        0       0.00000000      -0.00989868       0.00961737       0.00102940
H        6.73966697      -0.41074901      15.07668527        0       0.00000000      -0.00638070       0.01225566      -0.00014271
O        8.43622560       2.53058475      16.48595398        0       0.00000000      -0.00234123      -0.00966665       0.00365520
H        8.05841946       1.64383232      16.33678853        0       0.00000000       0.00282289      -0.00782331      -0.00506029
H        9.37279363       2.44796297      16.21138155        0       0.00000000      -0.00714046      -0.00297535       0.00052165
O        3.70689887      -0.13959071      16.59315655        0       0.00000000      -0.00030395       0.00134920       0.00108800
H        3.25063435      -0.95902784      16.31669556        0       0.00000000      -0.00117840       0.00258895       0.00660273
H        4.65617815      -0.31375908      16.41055497        0       0.00000000      -0.00369026       0.00378142      -0.00080934
O        2.44375954       2.30033545      15.59693301        0       0.00000000       0.03709474       0.00843907      -0.00921374
H        2.90235709       1.49517411      15.94639550        0       0.00000000      -0.00099926       0.02369635      -0.01473435
H        2.29724162       2.08825833      14.65604790        0       0.00000000       0.00151285      -0.00257406      -0.02153699