69
Lattice="7.084087802956708 0.0 0.0 0.0 14.460333675264895 0.0 0.0 0.0 28.0" Properties=species:S:1:pos:R:3:initial_magmoms:R:1:forces:R:3:magmoms:R:1 adsorbate_info="_JSON {\"sites\": {}}" energy=-186.62627844613388 dipole="-50.463455959958324 -26.38730803052487 11.321832580640878" magmom=0.0 pbc="T T F"
Ag       4.80111850       1.50679904      16.39619179       0.00000000      -0.00906112       0.01319631       0.01322228       0.00000000
Ag       4.78599707       4.38970561      16.64547200       0.00000000       0.00129198       0.01618667       0.00282107       0.00000000
Ag       4.79408004       7.30621253      16.40342539       0.00000000       0.00666444       0.00011401       0.00673755       0.00000000
Ag       2.42620983       0.05826790      15.60115161       0.00000000      -0.00010713       0.00864800       0.01178369       0.00000000
Ag       2.42729846       2.95182168      15.57709538       0.00000000      -0.00036549       0.00618301       0.00486646       0.00000000
Ag       2.42969975       5.83961214      15.58627810       0.00000000       0.00557721       0.00804374       0.00803598       0.00000000
Ag       0.08606366       1.49412946      14.78424598       0.00000000       0.00364459       0.00298191       0.00264416       0.00000000
Ag       0.06125328       4.39402203      14.82659808       0.00000000       0.00614774       0.00109479      -0.00194441       0.00000000
Ag       0.08560488       7.28126337      14.79228713       0.00000000       0.00388948       0.00678298       0.00187672       0.00000000
Ag       4.80325953       0.07204675      13.82444978       0.00000000       0.00209988      -0.00545473       0.01401891       0.00000000
Ag       4.80962918       2.97119121      13.86810756       0.00000000       0.00258503      -0.00468073       0.00356381       0.00000000
Ag       4.80293657       5.81044436      13.88232091       0.00000000       0.00130606       0.00233278       0.00048554       0.00000000
Ag       2.40336742       1.50103931      12.96590676       0.00000000       0.00383486       0.00084597       0.00647997       0.00000000
Ag       2.39703511       4.39394673      12.97998443       0.00000000       0.00726914      -0.00113014       0.00049869       0.00000000
Ag       2.40764716       7.28272178      12.96999030       0.00000000      -0.00088847      -0.00281408       0.00336984       0.00000000
Ag       0.02410865       0.02362260      12.10064331       0.00000000      -0.00318038      -0.00404127      -0.00140083       0.00000000
Ag       0.01858479       2.91467063      12.10427062       0.00000000      -0.00197698       0.00163465      -0.00044705       0.00000000
Ag       0.01600418       5.80607734      12.10739196       0.00000000      -0.00163939      -0.00066714      -0.00052259       0.00000000
Ag       4.72272520       1.44603337      11.17433877       0.00000000       0.07548896       0.04422779       0.43798046       0.00000000
Ag       4.72272520       4.33810010      11.17433877       0.00000000       0.05871423       0.02697296       0.43969645       0.00000000
Ag       4.72272520       7.23016684      11.17433877       0.00000000       0.07474182       0.00665276       0.46559470       0.00000000
Ag       2.36136260       0.00000000      10.33947102       0.00000000       0.03073562       0.01315713       0.28445994       0.00000000
Ag       2.36136260       2.89206674      10.33947102       0.00000000       0.03013586       0.02868129       0.31986793       0.00000000
Ag       2.36136260       5.78413347      10.33947102       0.00000000       0.02671137       0.00937578       0.32826921       0.00000000
Ag      -0.00000000       1.44603337       9.50460326       0.00000000      -0.09970794       0.01114373       0.05151141       0.00000000
Ag      -0.00000000       4.33810010       9.50460326       0.00000000      -0.10450985       0.01093391       0.06825972       0.00000000
Ag      -0.00000000       7.23016684       9.50460326       0.00000000      -0.10021341       0.00531188       0.05489713       0.00000000
Ag       4.72272520       0.00000000       8.66973551       0.00000000      -0.10861534      -0.00894837      -0.38662094       0.00000000
Ag       4.72272520       2.89206674       8.66973551       0.00000000      -0.10353567      -0.00545306      -0.39009461       0.00000000
Ag       4.72272520       5.78413347       8.66973551       0.00000000      -0.10342699       0.00424355      -0.38978993       0.00000000
Ag       2.36136260       1.44603337       7.83486775       0.00000000       0.06688552       0.00249370      -0.32475805       0.00000000
Ag       2.36136260       4.33810010       7.83486775       0.00000000       0.05936910      -0.00020026      -0.32684863       0.00000000
Ag       2.36136260       7.23016684       7.83486775       0.00000000       0.06605250      -0.00285933      -0.32414204       0.00000000
Ag       0.00000000       0.00000000       7.00000000       0.00000000      -0.04010411      -0.00126820      -0.11782138       0.00000000
Ag       0.00000000       2.89206674       7.00000000       0.00000000      -0.03276977       0.00400730      -0.12529471       0.00000000
Ag       0.00000000       5.78413347       7.00000000       0.00000000      -0.03300925      -0.00387401      -0.12503149       0.00000000
C        4.78032059       4.34502880      18.88534879       0.00000000       0.00943000      -0.00851957      -0.04114832       0.00000000
O        5.92232097       4.42886822      19.42778629       0.00000000       0.01831440      -0.00861901       0.02702224       0.00000000
O        3.65819349       4.24097095      19.46372124       0.00000000      -0.02990601      -0.00430507       0.00060720       0.00000000
O        3.35283763       5.52225141      21.91948300       0.00000000      -0.00461885       0.00038359       0.03116615       0.00000000
H        3.21135462       6.44433840      21.64309620       0.00000000      -0.00396801      -0.00363997       0.02077157       0.00000000
H        3.50711652       5.04412962      21.05936543       0.00000000      -0.00598595      -0.00151781       0.01114230       0.00000000
O        6.30542794       2.91959967      21.77768869       0.00000000       0.01662802      -0.01248625       0.01163249       0.00000000
H        6.14404243       3.46627833      20.96359218       0.00000000      -0.00627850      -0.00068973       0.00468617       0.00000000
H        6.43295257       2.02085573      21.42781424       0.00000000       0.00211446      -0.00455470       0.00545168       0.00000000
Ag       4.79472115      10.20060914      16.40098658       0.00000000       0.00440123      -0.00477758      -0.00729025       0.00000000
Ag       2.42842303       8.73388180      15.60599567       0.00000000       0.00351611       0.00321928       0.01324331       0.00000000
Ag       0.08922151      10.17079233      14.78573656       0.00000000      -0.00774532       0.00698308       0.01323904       0.00000000
Ag       4.81236088       8.72463835      13.83581500       0.00000000      -0.00401551      -0.00344790      -0.00102928       0.00000000
Ag       2.40706347      10.17428051      12.97166450       0.00000000      -0.00632923       0.00069612       0.00528267       0.00000000
Ag       0.02479515       8.69420853      12.10111860       0.00000000      -0.00095068       0.00400494      -0.00024205       0.00000000
Ag       4.72272520      10.12223357      11.17433877       0.00000000       0.07400025       0.02272836       0.44182298       0.00000000
Ag       2.36136260       8.67620021      10.33947102       0.00000000       0.03108123       0.02186812       0.28872694       0.00000000
Ag      -0.00000000      10.12223357       9.50460326       0.00000000      -0.10506823       0.00053656       0.05778896       0.00000000
Ag       4.72272520       8.67620021       8.66973551       0.00000000      -0.10841756       0.00850685      -0.38772895       0.00000000
Ag       2.36136260      10.12223357       7.83486775       0.00000000       0.08485103       0.00552581      -0.34330791       0.00000000
Ag       0.00000000       8.67620021       7.00000000       0.00000000      -0.03992850       0.00086864      -0.11855270       0.00000000
Ag       4.79481912      13.08788639      16.40059708       0.00000000       0.00102851      -0.00420349      -0.01215323       0.00000000
Ag       2.42685550      11.62672549      15.60800002       0.00000000      -0.00082538       0.00532300       0.01336451       0.00000000
Ag       0.08692153      13.06118741      14.78171420       0.00000000      -0.00683091       0.00732522       0.01720574       0.00000000
Ag       4.80563418      11.63178596      13.82254133       0.00000000       0.00082313      -0.00800624       0.01013216       0.00000000
Ag       2.40301739      13.06690769      12.96905838       0.00000000      -0.00296785       0.00339644       0.00620821       0.00000000
Ag       0.02615698      11.58785496      12.09779542       0.00000000      -0.00895707       0.00138970       0.00506680       0.00000000
Ag       4.72272520      13.01430031      11.17433877       0.00000000       0.07289602       0.02543883       0.43034868       0.00000000
Ag       2.36136260      11.56826694      10.33947102       0.00000000       0.05355087       0.01633036       0.28883563       0.00000000
Ag      -0.00000000      13.01430031       9.50460326       0.00000000      -0.10574555       0.01611676       0.05822609       0.00000000
Ag       4.72272520      11.56826694       8.66973551       0.00000000      -0.11109953      -0.00009601      -0.37708217       0.00000000
Ag       2.36136260      13.01430031       7.83486775       0.00000000       0.08517678      -0.00637888      -0.34327883       0.00000000
Ag       0.00000000      11.56826694       7.00000000       0.00000000      -0.05971931      -0.00016027      -0.10629009       0.00000000
