69
Lattice="7.084087802956708 0.0 0.0 0.0 11.568266940211917 0.0 0.0 0.0 28.0" Properties=species:S:1:pos:R:3:initial_magmoms:R:1:forces:R:3:magmoms:R:1 adsorbate_info="_JSON {\"sites\": {}}" energy=-209.39649434404006 dipole="-67.01951214353709 -26.320800114382415 6.085705634837058" magmom=0.0 pbc="T T F"
Ag       4.88910854       1.50352377      16.46525362       0.00000000      -0.00112363      -0.00222524      -0.00011249       0.00000000
Ag       4.88691620       4.39843710      16.47653783       0.00000000      -0.00075681      -0.00223241      -0.00176417       0.00000000
Ag       4.88695334       7.28347233      16.44454968       0.00000000       0.00483431      -0.00229718      -0.00854708       0.00000000
Ag       2.51077067       0.03718448      15.70785700       0.00000000       0.00419173      -0.00280601      -0.00240200       0.00000000
Ag       2.52170188       2.93134104      15.68436987       0.00000000       0.00681906       0.00261971      -0.00165965       0.00000000
Ag       2.50437743       5.81512158      15.71202814       0.00000000       0.00477645      -0.00172096      -0.00308239       0.00000000
Ag       0.17322713       1.46233866      14.83819175       0.00000000       0.00051185       0.00276199      -0.00715878       0.00000000
Ag       0.16909958       4.35239069      14.84251330       0.00000000      -0.00021736       0.00142809      -0.00672028       0.00000000
Ag       0.17447134       7.24421596      14.82549283       0.00000000      -0.00369999      -0.00223478      -0.00367847       0.00000000
Ag       4.87573717       0.03372562      13.86263878       0.00000000       0.00149215      -0.00779767      -0.00088500       0.00000000
Ag       4.87687595       2.92443089      13.86077757       0.00000000       0.00578805      -0.00660665       0.00573658       0.00000000
Ag       4.87227011       5.81328144      13.86098368       0.00000000       0.00579217      -0.00228437       0.00677395       0.00000000
Ag       2.46236705       1.46080750      13.01225206       0.00000000      -0.00111535       0.00091252       0.00148181       0.00000000
Ag       2.46056101       4.35387621      13.00978227       0.00000000      -0.00858345       0.00547515      -0.00264707       0.00000000
Ag       2.46289373       7.24593125      13.01285047       0.00000000      -0.00306407       0.00105327       0.00027412       0.00000000
Ag       0.06897014       0.01078317      12.12406113       0.00000000      -0.00617038       0.00165338       0.00217638       0.00000000
Ag       0.06791729       2.90229940      12.12241513       0.00000000       0.00150871       0.00022408       0.00327933       0.00000000
Ag       0.06586302       5.79363391      12.12144364       0.00000000       0.00448228      -0.00048746       0.00528116       0.00000000
Ag       4.72272520       1.44603337      11.17433877       0.00000000       0.17101858       0.01348846       0.49794779       0.00000000
Ag       4.72272520       4.33810010      11.17433877       0.00000000       0.16746399       0.01263104       0.50571242       0.00000000
Ag       4.72272520       7.23016684      11.17433877       0.00000000       0.16659092       0.01227285       0.50353569       0.00000000
Ag       2.36136260       0.00000000      10.33947102       0.00000000       0.04590468       0.00300257       0.35039525       0.00000000
Ag       2.36136260       2.89206674      10.33947102       0.00000000       0.04651069       0.00096625       0.34980365       0.00000000
Ag       2.36136260       5.78413347      10.33947102       0.00000000       0.04471872       0.00579483       0.35144277       0.00000000
Ag      -0.00000000       1.44603337       9.50460326       0.00000000      -0.11675166       0.00390807       0.10929882       0.00000000
Ag      -0.00000000       4.33810010       9.50460326       0.00000000      -0.11463895       0.00313874       0.10543958       0.00000000
Ag      -0.00000000       7.23016684       9.50460326       0.00000000      -0.11556770       0.00356659       0.10636655       0.00000000
Ag       4.72272520       0.00000000       8.66973551       0.00000000      -0.11442548      -0.00010828      -0.38439557       0.00000000
Ag       4.72272520       2.89206674       8.66973551       0.00000000      -0.11400391       0.00175382      -0.38596497       0.00000000
Ag       4.72272520       5.78413347       8.66973551       0.00000000      -0.11555945      -0.00094156      -0.38839904       0.00000000
Ag       2.36136260       1.44603337       7.83486775       0.00000000       0.06671382      -0.00000739      -0.33141981       0.00000000
Ag       2.36136260       4.33810010       7.83486775       0.00000000       0.06922516       0.00011666      -0.32699903       0.00000000
Ag       2.36136260       7.23016684       7.83486775       0.00000000       0.06807591       0.00050134      -0.32989273       0.00000000
Ag       0.00000000       0.00000000       7.00000000       0.00000000      -0.03474490      -0.00106360      -0.14587905       0.00000000
Ag       0.00000000       2.89206674       7.00000000       0.00000000      -0.03664825      -0.00097065      -0.14321275       0.00000000
Ag       0.00000000       5.78413347       7.00000000       0.00000000      -0.03742181       0.00128306      -0.14295203       0.00000000
O        3.05753039       6.10939462      19.91980412       0.00000000      -0.01188711      -0.02603593      -0.01168444       0.00000000
H        2.08969315       6.27945274      19.83511646       0.00000000      -0.00226742      -0.00114633      -0.00126661       0.00000000
H        3.30943558       5.76045943      19.04116113       0.00000000      -0.00076402      -0.00226367       0.00643992       0.00000000
O        5.94548718       2.97534538      21.26975807       0.00000000       0.01108611      -0.01087435      -0.00195075       0.00000000
H        6.70100213       3.09162855      20.66006569       0.00000000       0.00741912       0.01338990       0.00705152       0.00000000
H        5.53796451       2.14470520      20.93910444       0.00000000      -0.01259537       0.00704406       0.02381260       0.00000000
O        5.02074041       0.39733081      20.09476829       0.00000000       0.00594895      -0.02627801       0.00070511       0.00000000
H        4.90804082       0.44667312      19.12127829       0.00000000      -0.01764706      -0.01402069       0.02728176       0.00000000
H        4.24600337      -0.11425747      20.39199689       0.00000000      -0.01818682       0.02371670      -0.01107769       0.00000000
O        1.08904047       2.51312043      19.12236231       0.00000000       0.00104067      -0.00127802      -0.02104651       0.00000000
H        2.04447862       2.67779866      19.01575468       0.00000000      -0.01164225       0.00589528       0.03338555       0.00000000
H        0.76515344       2.51022404      18.19894334       0.00000000      -0.00918333      -0.01743558       0.00491288       0.00000000
O        0.16442063       6.22922571      19.60585002       0.00000000       0.00217372       0.03039085      -0.00885925       0.00000000
H       -0.50959619       6.93038484      19.77326809       0.00000000       0.00023223       0.00747460      -0.00599355       0.00000000
H       -0.00094264       5.96654656      18.67994725       0.00000000       0.00871301       0.01188535       0.02584632       0.00000000
Ag       4.88329740      10.18441948      16.48018003       0.00000000       0.00262250       0.00006971       0.00509263       0.00000000
Ag       2.51602350       8.71204472      15.69506477       0.00000000       0.00260223       0.00480408      -0.00412068       0.00000000
Ag       0.17015142      10.13700707      14.83684039       0.00000000      -0.00012951       0.00105441      -0.00452626       0.00000000
Ag       4.87725147       8.71029680      13.86105337       0.00000000      -0.00068814       0.00003275       0.00125239       0.00000000
Ag       2.46002474      10.14008882      13.01166489       0.00000000       0.00814729      -0.00569636       0.00540199       0.00000000
Ag       0.06863275       8.68666298      12.12053408       0.00000000      -0.00229537       0.00009886       0.00336247       0.00000000
Ag       4.72272520      10.12223357      11.17433877       0.00000000       0.16710707       0.01037262       0.50425127       0.00000000
Ag       2.36136260       8.67620021      10.33947102       0.00000000       0.04996279       0.00338847       0.35349579       0.00000000
Ag      -0.00000000      10.12223357       9.50460326       0.00000000      -0.11633213       0.00601329       0.11016977       0.00000000
Ag       4.72272520       8.67620021       8.66973551       0.00000000      -0.11357437      -0.00214816      -0.38545832       0.00000000
Ag       2.36136260      10.12223357       7.83486775       0.00000000       0.06577648      -0.00016946      -0.32994869       0.00000000
Ag       0.00000000       8.67620021       7.00000000       0.00000000      -0.03626509       0.00036771      -0.14549319       0.00000000
O        5.05742678       8.16197993      20.08037868       0.00000000       0.00727491       0.00718724       0.00149080       0.00000000
H        4.97911909       8.66916672      19.24727232       0.00000000       0.00904933      -0.00933193       0.03338232       0.00000000
H        4.29410037       7.53341369      20.04276418       0.00000000       0.00152109      -0.00233086      -0.00415058       0.00000000
O        1.52240368      10.04444904      19.12899937       0.00000000      -0.00182597       0.00144765      -0.01535276       0.00000000
H        2.18342458      10.03775366      18.40430251       0.00000000      -0.02445377      -0.00575479       0.00151591       0.00000000
H        0.67958526      10.13054422      18.64551593       0.00000000      -0.00395599       0.00135566       0.02274945       0.00000000
