72
Lattice="7.084087802956708 0.0 0.0 0.0 11.568266940211917 0.0 0.0 0.0 28.0" Properties=species:S:1:pos:R:3:initial_magmoms:R:1:forces:R:3:magmoms:R:1 adsorbate_info="_JSON {\"sites\": {}}" energy=-232.5203777746456 dipole="-56.093495043353016 -36.63261550842379 9.606004880947465" magmom=0.0 pbc="T T F"
Ag       4.86860373       1.51887812      16.46883810       0.00000000      -0.00953090      -0.00048057       0.00226808       0.00000000
Ag       4.89756046       4.41566786      16.70681681       0.00000000      -0.03204864       0.00923254       0.02540089       0.00000000
Ag       4.87160962       7.32374772      16.46255944       0.00000000      -0.00442392      -0.00786307       0.00790658       0.00000000
Ag       2.48425244       0.08080494      15.67021323       0.00000000       0.00060888       0.00727903       0.00463428       0.00000000
Ag       2.51783656       2.97617660      15.61176319       0.00000000      -0.00521212       0.00725610       0.00481644       0.00000000
Ag       2.49851838       5.85843576      15.64273658       0.00000000      -0.00564753      -0.01080954       0.00915883       0.00000000
Ag       0.14170244       1.51544354      14.81772494       0.00000000      -0.00253904      -0.00842849      -0.00143730       0.00000000
Ag       0.12323543       4.40784708      14.83350282       0.00000000       0.00018629      -0.00675342      -0.00054539       0.00000000
Ag       0.13927403       7.29553402      14.80625855       0.00000000       0.00468507       0.00500730       0.00678271       0.00000000
Ag       4.85333029       0.07157982      13.87318433       0.00000000      -0.00120117       0.00867930      -0.00107067       0.00000000
Ag       4.86134244       2.97695745      13.89881265       0.00000000      -0.00227017      -0.00168272       0.00628573       0.00000000
Ag       4.84666948       5.82915962      13.91308278       0.00000000      -0.00302521       0.00866428      -0.00176585       0.00000000
Ag       2.43770601       1.49626969      12.98861177       0.00000000      -0.00578888       0.00834046       0.00065534       0.00000000
Ag       2.43107016       4.39527274      12.99484863       0.00000000      -0.00719522      -0.01042684       0.00153927       0.00000000
Ag       2.43450667       7.28408874      12.99291213       0.00000000      -0.00023041      -0.00693174      -0.00373560       0.00000000
Ag       0.04177199       0.03034344      12.11227380       0.00000000       0.00216723       0.00381514       0.00438248       0.00000000
Ag       0.03889034       2.92039323      12.10995507       0.00000000       0.00595468       0.00207331       0.01218145       0.00000000
Ag       0.03182301       5.81543819      12.11248665       0.00000000       0.00277982      -0.00692386       0.00801857       0.00000000
Ag       4.72272520       1.44603337      11.17433877       0.00000000       0.12256721       0.02875786       0.50083638       0.00000000
Ag       4.72272520       4.33810010      11.17433877       0.00000000       0.10445244       0.02832976       0.49374765       0.00000000
Ag       4.72272520       7.23016684      11.17433877       0.00000000       0.11296853       0.02014718       0.50794078       0.00000000
Ag       2.36136260       0.00000000      10.33947102       0.00000000       0.03500466       0.00648031       0.32980642       0.00000000
Ag       2.36136260       2.89206674      10.33947102       0.00000000       0.03070857       0.02361107       0.35379034       0.00000000
Ag       2.36136260       5.78413347      10.33947102       0.00000000       0.02560792       0.00767471       0.36475766       0.00000000
Ag      -0.00000000       1.44603337       9.50460326       0.00000000      -0.10775731       0.01369988       0.08342526       0.00000000
Ag      -0.00000000       4.33810010       9.50460326       0.00000000      -0.11396574       0.01179007       0.09354127       0.00000000
Ag      -0.00000000       7.23016684       9.50460326       0.00000000      -0.10928717       0.00725155       0.08502833       0.00000000
Ag       4.72272520       0.00000000       8.66973551       0.00000000      -0.11660439      -0.01925117      -0.39496675       0.00000000
Ag       4.72272520       2.89206674       8.66973551       0.00000000      -0.11236901      -0.00094083      -0.39670810       0.00000000
Ag       4.72272520       5.78413347       8.66973551       0.00000000      -0.11140293      -0.00022501      -0.39697363       0.00000000
Ag       2.36136260       1.44603337       7.83486775       0.00000000       0.06159626      -0.00144198      -0.32828541       0.00000000
Ag       2.36136260       4.33810010       7.83486775       0.00000000       0.06244725       0.00000773      -0.33010717       0.00000000
Ag       2.36136260       7.23016684       7.83486775       0.00000000       0.05971444      -0.00094769      -0.32712179       0.00000000
Ag       0.00000000       0.00000000       7.00000000       0.00000000      -0.05038463       0.00543145      -0.13720094       0.00000000
Ag       0.00000000       2.89206674       7.00000000       0.00000000      -0.02361239      -0.00322099      -0.15088974       0.00000000
Ag       0.00000000       5.78413347       7.00000000       0.00000000      -0.02487655       0.00505406      -0.15054809       0.00000000
C        5.04985010       4.43585221      18.95546541       0.00000000       0.01554246      -0.00897796       0.01708276       0.00000000
O        6.22319853       4.28990245      19.43675234       0.00000000       0.02044048      -0.01795966      -0.00353781       0.00000000
O        3.99027593       4.61267668      19.61103032       0.00000000      -0.02668075      -0.01479697       0.01380551       0.00000000
O        3.01258115       6.97671968      20.90666862       0.00000000       0.01377095       0.01362023      -0.01930660       0.00000000
H        2.04342996       7.00643945      20.73139952       0.00000000       0.00357759      -0.00897650       0.01612119       0.00000000
H        3.32411879       6.17217262      20.42853013       0.00000000       0.00247046      -0.01169002       0.00774938       0.00000000
O        6.04608657       2.49308763      21.82899744       0.00000000      -0.00574763      -0.00198629       0.00294586       0.00000000
H        6.10361542       3.15629040      21.10305082       0.00000000      -0.01438928      -0.00495682      -0.01508009       0.00000000
H        5.74533536       1.68021910      21.37233184       0.00000000      -0.00475809      -0.00267610       0.00339673       0.00000000
O        4.86659180       0.12543203      20.32603672       0.00000000       0.00771152      -0.01110494       0.01903289       0.00000000
H        4.62777783       0.42816050      19.43018085       0.00000000      -0.00788280       0.00088744       0.00144931       0.00000000
H        4.91534618      -0.85524806      20.24456263       0.00000000      -0.01020416       0.00390165      -0.00606635       0.00000000
O        1.07487046       2.23480138      18.99430694       0.00000000      -0.01092367      -0.00561104       0.00265510       0.00000000
H        1.28033727       2.10213648      18.04854023       0.00000000      -0.00626436       0.00060504      -0.00173158       0.00000000
H        0.40258432       2.95648894      18.99195048       0.00000000      -0.01215832       0.00425058      -0.00487869       0.00000000
O        0.09883470       6.77856601      20.79593129       0.00000000      -0.00463546      -0.00367431       0.00207683       0.00000000
H       -0.52110573       7.46821686      20.47277385       0.00000000      -0.00996916       0.00291834      -0.00316365       0.00000000
H       -0.17646671       5.96604516      20.31410458       0.00000000      -0.00395405      -0.00369880      -0.00846833       0.00000000
Ag       4.85497864      10.20126162      16.45296961       0.00000000      -0.01308063      -0.00631085       0.02393515       0.00000000
Ag       2.48800401       8.75260779      15.65916161       0.00000000       0.00133147      -0.00057797       0.01015761       0.00000000
Ag       0.13545147      10.18723396      14.82454308       0.00000000       0.00834614       0.00821917      -0.00135087       0.00000000
Ag       4.85453114       8.72823804      13.85832969       0.00000000      -0.00473175      -0.00898325      -0.00167162       0.00000000
Ag       2.43149328      10.17573449      12.99822292       0.00000000       0.00678298       0.00410120      -0.00514319       0.00000000
Ag       0.04631325       8.70839646      12.10836090       0.00000000      -0.00223673      -0.00041046       0.00429774       0.00000000
Ag       4.72272520      10.12223357      11.17433877       0.00000000       0.11020219       0.03110172       0.52529216       0.00000000
Ag       2.36136260       8.67620021      10.33947102       0.00000000       0.04056837       0.01883146       0.32955755       0.00000000
Ag      -0.00000000      10.12223357       9.50460326       0.00000000      -0.11288106       0.01528576       0.08601944       0.00000000
Ag       4.72272520       8.67620021       8.66973551       0.00000000      -0.11632898       0.01878065      -0.39512496       0.00000000
Ag       2.36136260      10.12223357       7.83486775       0.00000000       0.09514014       0.00199161      -0.34395375       0.00000000
Ag       0.00000000       8.67620021       7.00000000       0.00000000      -0.05048060      -0.00768426      -0.14044181       0.00000000
O        5.03181048       8.76297431      19.98850624       0.00000000       0.01142469       0.01016541       0.01073264       0.00000000
H        5.00086913       8.71741711      19.00948481       0.00000000       0.00071921       0.00395309       0.00661606       0.00000000
H        4.23943732       8.23554174      20.27372347       0.00000000       0.01137044       0.00952653       0.00631585       0.00000000
O        1.49128778      10.05733247      19.12688235       0.00000000       0.01267482       0.00078638       0.00919621       0.00000000
H        1.97708996       9.85989768      18.29993290       0.00000000       0.00329058       0.00064656      -0.00263681       0.00000000
H        0.71046629      10.54647751      18.80996594       0.00000000       0.00238571      -0.00073172       0.01598799       0.00000000
