90
Lattice="7.084087802956708 0.0 0.0 0.0 14.460333675264895 0.0 0.0 0.0 28.0" Properties=species:S:1:pos:R:3:initial_magmoms:R:1:forces:R:3:magmoms:R:1 adsorbate_info="_JSON {\"sites\": {}}" energy=-288.79726353219485 dipole="-68.88417190470554 -43.59263968629578 11.591027090701061" magmom=0.0 pbc="T T F"
Ag       4.87056710       1.51839341      16.46124743       0.00000000      -0.00450991      -0.00709006       0.00702743       0.00000000
Ag       4.88102331       4.40371802      16.76632158       0.00000000      -0.00200828      -0.00363939       0.01808109       0.00000000
Ag       4.87219610       7.31951248      16.45893023       0.00000000      -0.00593438      -0.01234693       0.01403902       0.00000000
Ag       2.49012587       0.08560781      15.65256603       0.00000000      -0.01224264      -0.00944139       0.00516255       0.00000000
Ag       2.52481716       2.98109406      15.58835997       0.00000000       0.00860751       0.00142930       0.01147694       0.00000000
Ag       2.49047719       5.85826986      15.64480385       0.00000000       0.01252635      -0.00712640       0.01165224       0.00000000
Ag       0.14188989       1.51659496      14.81300285       0.00000000       0.00561712      -0.00310043       0.00651270       0.00000000
Ag       0.11020706       4.40778560      14.85035532       0.00000000       0.00190343      -0.00168579      -0.00329881       0.00000000
Ag       0.13454026       7.29564083      14.81048457       0.00000000       0.00082515       0.00412898       0.00621886       0.00000000
Ag       4.85089832       0.07473155      13.87269643       0.00000000      -0.00362948      -0.00701868       0.00223437       0.00000000
Ag       4.86038888       2.97743087      13.89960692       0.00000000       0.00026697       0.00543449      -0.00122515       0.00000000
Ag       4.83595001       5.82213351      13.92539029       0.00000000       0.00433548      -0.01141531      -0.00173445       0.00000000
Ag       2.43357086       1.49940580      12.97951281       0.00000000      -0.00217250       0.00005908       0.01033846       0.00000000
Ag       2.42048135       4.39788835      12.99460676       0.00000000       0.00985504       0.00062784      -0.00293876       0.00000000
Ag       2.42813380       7.28366188      12.99080242       0.00000000      -0.00154469      -0.00044635       0.00259696       0.00000000
Ag       0.03962140       0.03319848      12.11191016       0.00000000      -0.00006097      -0.00339030       0.00562542       0.00000000
Ag       0.03673449       2.92436118      12.11236798       0.00000000      -0.00128005      -0.00332128       0.00310665       0.00000000
Ag       0.02530694       5.81578612      12.11957607       0.00000000      -0.00261307      -0.00121132      -0.00024794       0.00000000
Ag       4.72272520       1.44603337      11.17433877       0.00000000       0.12202561       0.03683438       0.49319537       0.00000000
Ag       4.72272520       4.33810010      11.17433877       0.00000000       0.09171441       0.02897650       0.49052701       0.00000000
Ag       4.72272520       7.23016684      11.17433877       0.00000000       0.10269567       0.00692512       0.50601097       0.00000000
Ag       2.36136260       0.00000000      10.33947102       0.00000000       0.03308879       0.00726355       0.31702478       0.00000000
Ag       2.36136260       2.89206674      10.33947102       0.00000000       0.03606112       0.02599950       0.34111944       0.00000000
Ag       2.36136260       5.78413347      10.33947102       0.00000000       0.02187725       0.01135193       0.36124768       0.00000000
Ag      -0.00000000       1.44603337       9.50460326       0.00000000      -0.10064412       0.01383242       0.07782420       0.00000000
Ag      -0.00000000       4.33810010       9.50460326       0.00000000      -0.10434399       0.01691660       0.09167914       0.00000000
Ag      -0.00000000       7.23016684       9.50460326       0.00000000      -0.10087844       0.00676566       0.08363705       0.00000000
Ag       4.72272520       0.00000000       8.66973551       0.00000000      -0.10571442      -0.00404435      -0.40257613       0.00000000
Ag       4.72272520       2.89206674       8.66973551       0.00000000      -0.10232706      -0.00628446      -0.40780976       0.00000000
Ag       4.72272520       5.78413347       8.66973551       0.00000000      -0.10210986       0.00430168      -0.40671602       0.00000000
Ag       2.36136260       1.44603337       7.83486775       0.00000000       0.07459564       0.00382410      -0.32286611       0.00000000
Ag       2.36136260       4.33810010       7.83486775       0.00000000       0.06584375      -0.00116232      -0.32306358       0.00000000
Ag       2.36136260       7.23016684       7.83486775       0.00000000       0.07221836      -0.00191503      -0.31935587       0.00000000
Ag       0.00000000       0.00000000       7.00000000       0.00000000      -0.04915128      -0.00143806      -0.14451981       0.00000000
Ag       0.00000000       2.89206674       7.00000000       0.00000000      -0.04073663       0.00403488      -0.15002619       0.00000000
Ag       0.00000000       5.78413347       7.00000000       0.00000000      -0.03961199      -0.00432340      -0.15005369       0.00000000
C        5.01599381       4.38980828      19.01696140       0.00000000       0.01899392      -0.00221438      -0.02010581       0.00000000
O        6.17856823       4.22444306      19.53046867       0.00000000       0.00357152      -0.01737547      -0.02757744       0.00000000
O        3.94781736       4.57869023      19.65801305       0.00000000       0.00774225      -0.00131838      -0.02517912       0.00000000
O        2.99783698       6.95195190      20.92453868       0.00000000      -0.00152674       0.01040424      -0.02292049       0.00000000
H        2.03042626       6.98807174      20.74307222       0.00000000      -0.01018418       0.00789401       0.01496467       0.00000000
H        3.30072397       6.13077607      20.46804299       0.00000000       0.01706254      -0.00241128       0.00475469       0.00000000
O        6.02868442       2.53034541      21.93144780       0.00000000      -0.01571102       0.01098709      -0.01302136       0.00000000
H        6.06706141       3.17390572      21.18437151       0.00000000      -0.00758656      -0.00297339      -0.01114841       0.00000000
H        5.67882645       1.71581025      21.51085166       0.00000000      -0.01178133       0.00070886      -0.00516232       0.00000000
O        4.73518396       0.26586463      20.51472012       0.00000000       0.00061841       0.01497606      -0.01427328       0.00000000
H        4.71692717       0.51907776      19.57323106       0.00000000      -0.01197175       0.00199296       0.00048241       0.00000000
H        4.92884042      -0.69198325      20.49928240       0.00000000      -0.01096507      -0.01894227       0.00758019       0.00000000
O        0.97597043       2.22987887      18.83857364       0.00000000      -0.01654932      -0.00379147      -0.01589437       0.00000000
H        1.14491536       2.27107259      17.87535549       0.00000000       0.01046613      -0.00930943      -0.00548604       0.00000000
H        0.27790064       2.91807872      18.98082773       0.00000000      -0.00869404       0.00013924       0.02835068       0.00000000
O        0.08776247       6.76802113      20.79096371       0.00000000      -0.00004203      -0.00023812       0.00631227       0.00000000
H       -0.56246353       7.44181364      20.49228135       0.00000000      -0.00898816      -0.00825918      -0.00281797       0.00000000
H       -0.19015897       5.94288322      20.33380923       0.00000000      -0.01234747       0.01489063      -0.00234859       0.00000000
Ag       4.85143236      10.19917877      16.45350648       0.00000000       0.00113031       0.00677524       0.01059194       0.00000000
Ag       2.48635393       8.75023290      15.65447139       0.00000000      -0.00190131       0.00664952       0.01016415       0.00000000
Ag       0.13124501      10.18776984      14.82057427       0.00000000      -0.00510063       0.00272137       0.00805528       0.00000000
Ag       4.84986160       8.71796146      13.85330421       0.00000000      -0.00598212       0.00889421       0.00428373       0.00000000
Ag       2.42900330      10.17552678      12.99523888       0.00000000      -0.00338204       0.00311706       0.00586615       0.00000000
Ag       0.04404756       8.70817192      12.10988220       0.00000000       0.00150695       0.00059223       0.00254213       0.00000000
Ag       4.72272520      10.12223357      11.17433877       0.00000000       0.10768562       0.02776372       0.48546752       0.00000000
Ag       2.36136260       8.67620021      10.33947102       0.00000000       0.03803554       0.01843417       0.32051784       0.00000000
Ag      -0.00000000      10.12223357       9.50460326       0.00000000      -0.10853684       0.00749780       0.08279553       0.00000000
Ag       4.72272520       8.67620021       8.66973551       0.00000000      -0.10735235       0.00537290      -0.40193616       0.00000000
Ag       2.36136260      10.12223357       7.83486775       0.00000000       0.08573333       0.00179477      -0.33589400       0.00000000
Ag       0.00000000       8.67620021       7.00000000       0.00000000      -0.04706683       0.00159026      -0.14580752       0.00000000
O        4.99226818       8.71173378      20.04599841       0.00000000       0.00491637       0.00321791      -0.01565695       0.00000000
H        4.97278819       8.67136290      19.06708274       0.00000000       0.00394124       0.00389487      -0.00314701       0.00000000
H        4.20188427       8.17142402      20.31902351       0.00000000       0.01149864      -0.00115233       0.00897993       0.00000000
O        1.44444495      10.10516130      19.13582494       0.00000000       0.01208536       0.00598213       0.00946540       0.00000000
H        2.02496909       9.95773986      18.36136063       0.00000000      -0.02626294       0.01569350      -0.00147377       0.00000000
H        0.59215918      10.35139242      18.73287442       0.00000000       0.01364915      -0.00835204      -0.01214175       0.00000000
Ag       4.85477657      13.08677952      16.45479792       0.00000000       0.00391393      -0.00493108       0.00886659       0.00000000
Ag       2.48035290      11.64935475      15.66752989       0.00000000      -0.00927745      -0.00310008       0.00627368       0.00000000
Ag       0.13264497      13.08218403      14.81987758       0.00000000      -0.00545191      -0.00075186       0.00814099       0.00000000
Ag       4.84537576      11.62403711      13.85175335       0.00000000       0.00003853      -0.00007591       0.00595208       0.00000000
Ag       2.42951818      13.06862003      12.99391608       0.00000000      -0.00201407      -0.00421905       0.01284487       0.00000000
Ag       0.04401549      11.60073535      12.11053599       0.00000000       0.00067500      -0.00001678       0.00661055       0.00000000
Ag       4.72272520      13.01430031      11.17433877       0.00000000       0.10811290       0.03415767       0.48917755       0.00000000
Ag       2.36136260      11.56826694      10.33947102       0.00000000       0.05506946       0.01346217       0.32844708       0.00000000
Ag      -0.00000000      13.01430031       9.50460326       0.00000000      -0.10766582       0.01918811       0.08444625       0.00000000
Ag       4.72272520      11.56826694       8.66973551       0.00000000      -0.10779553      -0.00119144      -0.38970555       0.00000000
Ag       2.36136260      13.01430031       7.83486775       0.00000000       0.08585592      -0.00407479      -0.33620633       0.00000000
Ag       0.00000000      11.56826694       7.00000000       0.00000000      -0.06312377      -0.00069777      -0.13765668       0.00000000
H        1.01260376      14.78804126      19.13944300       0.00000000      -0.01565099       0.00014315       0.01091288       0.00000000
O        4.85271575      11.65969611      20.08576357       0.00000000       0.00105233       0.00115202      -0.00004711       0.00000000
H        4.64697230      11.75172795      19.13336311       0.00000000      -0.00422440      -0.01522586       0.00438535       0.00000000
H        4.87101281      10.68421948      20.21909080       0.00000000      -0.00291212       0.00408000      -0.01971688       0.00000000
O        1.14785622      13.82578466      19.30283224       0.00000000      -0.00051412       0.00511350       0.03226805       0.00000000
H        1.38456966      13.47343692      18.42445299       0.00000000      -0.01045232       0.00740294       0.01103214       0.00000000
