90
Lattice="9.058037866999674 0.0 0.0 0.0 15.68898180252625 0.0 0.0 0.0 25.0" Properties=species:S:1:pos:R:3:tags:I:1:initial_magmoms:R:1:forces:R:3 adsorbate_info="_JSON {\"cell\": [[2.9839906166072305, 0.0], [1.4919953083036153, 2.5842116786362523]], \"sites\": {\"bridge\": [0.5, 0.0], \"hcp\": [0.6666666666666666, 0.6666666666666666], \"fcc\": [0.3333333333333333, 0.3333333333333333], \"ontop\": [0, 0]}}" energy=-306.94873751134037 dipole="-18.671058052415052 3.1863845071688566 2.96557421522105" pbc="T T F"
Au       2.18315511       1.30741515       7.00000000        3       0.00000000       0.02365083      -0.06245738       0.06540695
Au       5.20250107       1.30741515       7.00000000        3       0.00000000       0.01911737      -0.05941377       0.06054963
Au       8.22184702       1.30741515       7.00000000        3       0.00000000       0.02654869      -0.05910916       0.06322360
Au       0.67348213       3.92224545       7.00000000        3       0.00000000      -0.03440139      -0.00848088       0.02187047
Au       3.69282809       3.92224545       7.00000000        3       0.00000000      -0.02806393      -0.00881163       0.02031991
Au       6.71217404       3.92224545       7.00000000        3       0.00000000      -0.03046298      -0.00926773       0.01988182
Au       0.66605672       2.18816278       9.42165558        2       0.00000000      -0.00243227       0.00298781      -0.00892191
Au       3.68289465       2.18848023       9.42189205        2       0.00000000       0.00097014       0.00005393      -0.00877920
Au       6.70185091       2.18766117       9.42049919        2       0.00000000       0.00039135       0.00275086      -0.00818064
Au       2.17760979       4.80835410       9.40894316        2       0.00000000      -0.00410848       0.00131354      -0.01278960
Au       5.19401149       4.80957029       9.41176111        2       0.00000000       0.00148709      -0.00344217      -0.01241227
Au       8.20802667       4.80870841       9.40978328        2       0.00000000       0.00076524      -0.00129339      -0.00990708
Au       0.66222137       0.44975144      11.84578620        1       0.00000000       0.00044914       0.00292286      -0.00792105
Au       3.67906144       0.45034491      11.84451438        1       0.00000000      -0.00001681       0.00218410      -0.00520035
Au       6.69952409       0.45173471      11.84958140        1       0.00000000      -0.00024214       0.00124025      -0.01096601
Au       2.17255219       3.08027199      11.83357531        1       0.00000000      -0.00345823      -0.00053963      -0.00957414
Au       5.19141016       3.07445238      11.82881516        1       0.00000000       0.00080781      -0.00059281      -0.00080139
Au       8.20828786       3.07162624      11.82484381        1       0.00000000       0.00297000       0.00171375       0.00113723
O        6.73167784       0.59830116      16.06376551        0       0.00000000       0.00864431      -0.00800637       0.02684757
H        7.21068284      -0.23633453      16.28670013        0       0.00000000      -0.00359295       0.00115395       0.00222072
H        6.72312075       0.60739350      15.09075702        0       0.00000000       0.00178670      -0.00590954      -0.03750644
O        8.14038492       3.34577255      16.76571283        0       0.00000000       0.00343336      -0.00403244       0.02477702
H        7.73564137       2.48422253      16.53218313        0       0.00000000       0.00344848       0.00303449       0.00197936
H        9.07205892       3.26501086      16.47420288        0       0.00000000       0.00755361      -0.00388825       0.00902102
O        3.53787256       0.63402855      16.71922375        0       0.00000000      -0.00995954       0.01116659       0.04727865
H        3.16204769      -0.22973391      16.44690711        0       0.00000000       0.03472314       0.01610547       0.00906923
H        4.48904918       0.57611333      16.49785268        0       0.00000000      -0.02963651      -0.02606170       0.00450578
O        2.13278987       3.16210291      15.90725930        0       0.00000000       0.00881890      -0.01641495       0.04200871
H        2.58446070       2.31745834      16.14317480        0       0.00000000      -0.00008361       0.00249809       0.02151882
H        2.12791354       3.16099002      14.93345108        0       0.00000000      -0.00500562       0.00790381      -0.03802686
Au       2.18315511       6.53707575       7.00000000        3       0.00000000       0.02561808       0.07839712       0.05822212
Au       5.20250107       6.53707575       7.00000000        3       0.00000000       0.02091435       0.08106597       0.06473760
Au       8.22184702       6.53707575       7.00000000        3       0.00000000       0.02371213       0.07882131       0.05962990
Au       0.67348213       9.15190605       7.00000000        3       0.00000000       0.01886049      -0.06125643       0.06900473
Au       3.69282809       9.15190605       7.00000000        3       0.00000000       0.02734765      -0.06575049       0.07217960
Au       6.71217404       9.15190605       7.00000000        3       0.00000000       0.02252925      -0.06646699       0.07433290
Au       0.66371275       7.41932851       9.43055270        2       0.00000000      -0.00188319      -0.00074728      -0.01215282
Au       3.68301869       7.41354013       9.43639731        2       0.00000000       0.00156811      -0.00209394      -0.01619743
Au       6.70178145       7.41332656       9.43641711        2       0.00000000      -0.00011242      -0.00259561      -0.01198805
Au       2.17489936      10.02876216       9.42370489        2       0.00000000      -0.00120695       0.00044968      -0.01376204
Au       5.19349635      10.02766065       9.42606466        2       0.00000000      -0.00013162       0.00183889      -0.01391259
Au       8.20944362      10.03081886       9.42569066        2       0.00000000       0.00101357      -0.00165879      -0.01250133
Au       0.66133558       5.66836659      11.82636304        1       0.00000000      -0.00144366       0.00997890      -0.00536576
Au       3.68807955       5.66780240      11.85721252        1       0.00000000      -0.00661525      -0.00739696      -0.02944404
Au       6.69423684       5.67144842      11.86942469        1       0.00000000       0.01074960      -0.00983764      -0.01911729
Au       2.17134182       8.29556013      11.85307186        1       0.00000000      -0.00171938      -0.00055620      -0.01646777
Au       5.19017332       8.29607888      11.85214653        1       0.00000000       0.00157978       0.00142840      -0.00929455
Au       8.20787332       8.29487856      11.84865855        1       0.00000000       0.00079155       0.00063850      -0.00967170
O        6.71854400       5.85883533      16.09538080        0       0.00000000       0.00981031       0.00288513       0.02677840
H        7.18570694       5.01562902      16.31149257        0       0.00000000       0.00373980       0.01134932      -0.02451515
H        6.70134861       5.87263470      15.12240928        0       0.00000000       0.00639709      -0.00913142      -0.03138688
O        8.16582378       8.57557443      16.78219667        0       0.00000000      -0.01347036       0.02028241      -0.02051748
H        7.75701164       7.71389536      16.55603648        0       0.00000000       0.00966339      -0.00462601       0.00943341
H        9.09352097       8.49581435      16.47738650        0       0.00000000      -0.00120765      -0.00447890       0.01366215
O        3.51549051       5.86630449      16.73314153        0       0.00000000      -0.01022762       0.02684459      -0.01885783
H        3.14853696       5.00266050      16.44950969        0       0.00000000       0.02007134       0.00267175       0.00438926
H        4.46907542       5.81338227      16.52261254        0       0.00000000      -0.00585971      -0.01369486       0.00300547
O        2.14399259       8.40283104      15.90690491        0       0.00000000       0.00331123      -0.00988498       0.04249974
H        2.58500788       7.55375385      16.14819715        0       0.00000000      -0.00207317       0.00949022       0.01556371
H        2.14335743       8.39747437      14.93292883        0       0.00000000      -0.00096378      -0.00091994      -0.03824192
Au       2.18315511      11.76673635       7.00000000        3       0.00000000      -0.03152306      -0.01621886       0.01447829
Au       5.20250107      11.76673635       7.00000000        3       0.00000000      -0.03429752      -0.01702822       0.01835867
Au       8.22184702      11.76673635       7.00000000        3       0.00000000      -0.02890834      -0.01610589       0.01595895
Au       0.67348213      14.38156665       7.00000000        3       0.00000000       0.02151421       0.07757133       0.05497990
Au       3.69282809      14.38156665       7.00000000        3       0.00000000       0.02532622       0.07716870       0.05411337
Au       6.71217404      14.38156665       7.00000000        3       0.00000000       0.02379675       0.07544063       0.05327519
Au       0.66427644      12.64846586       9.40509499        2       0.00000000      -0.00256732       0.00096232      -0.01162778
Au       3.68181787      12.64819483       9.40539995        2       0.00000000       0.00269832       0.00057123      -0.01264192
Au       6.70190094      12.64763694       9.40483419        2       0.00000000      -0.00016323       0.00335595      -0.01122783
Au       2.17376482      15.26147250       9.42951566        2       0.00000000      -0.00106088       0.00331158      -0.01217361
Au       5.19318346      15.26535578       9.42698544        2       0.00000000      -0.00158760      -0.00041822      -0.00997711
Au       8.21216442      15.26559207       9.42728803        2       0.00000000       0.00169520      -0.00107445      -0.01028967
Au       0.66103432      10.92366556      11.83076398        1       0.00000000      -0.00024072      -0.01186648      -0.01129903
Au       3.68161059      10.92792799      11.83465609        1       0.00000000      -0.00002974      -0.01172504      -0.01648672
Au       6.69896546      10.93419384      11.84471814        1       0.00000000       0.00086014      -0.00554074      -0.02254567
Au       2.17013664      13.51479815      11.83484290        1       0.00000000      -0.00005553       0.00502809      -0.02688188
Au       5.19000730      13.52255527      11.82144876        1       0.00000000      -0.00024206       0.00256854       0.00035902
Au       8.21039497      13.52074587      11.82231624        1       0.00000000       0.00004638       0.00400717      -0.00217519
O        2.12608175      13.61868485      15.92416693        0       0.00000000       0.00395821      -0.00659237       0.04717899
O        3.52301277      11.10432924      16.72096135        0       0.00000000      -0.01009078       0.02249827       0.00924140
O        6.70723178      11.06206879      16.06896992        0       0.00000000       0.00337037      -0.00486814       0.04567010
O        8.16820318      13.80680284      16.77509012        0       0.00000000       0.00312944       0.00891269       0.00539621
H        2.13264268      13.62522181      14.95034619        0       0.00000000       0.00454823      -0.01257728      -0.02765700
H        2.58087098      12.77486107      16.15996205        0       0.00000000      -0.00362124       0.00582572      -0.00087344
H        3.14726729      10.24154267      16.44570026        0       0.00000000       0.03090550       0.00855625       0.00193282
H        4.47608714      11.04349734      16.50883303        0       0.00000000      -0.01912466      -0.02340493       0.00245043
H        6.71128638      11.08222811      15.09569092        0       0.00000000       0.00409453      -0.01298714      -0.01913439
H        7.18943646      10.22892890      16.29003728        0       0.00000000      -0.00605347       0.00471585      -0.00960491
H        7.75269831      12.94914635      16.54838816        0       0.00000000       0.01853298       0.00284535       0.00605467
H        9.09857652      13.71635840      16.48067499        0       0.00000000       0.00668468      -0.01184933       0.00319004
