91
Lattice="9.058037866999674 0.0 0.0 0.0 15.68898180252625 0.0 0.0 0.0 25.0" Properties=species:S:1:pos:R:3:tags:I:1:initial_magmoms:R:1:forces:R:3 adsorbate_info="_JSON {\"cell\": [[2.9839906166072305, 0.0], [1.4919953083036153, 2.5842116786362523]], \"sites\": {\"bridge\": [0.5, 0.0], \"hcp\": [0.6666666666666666, 0.6666666666666666], \"fcc\": [0.3333333333333333, 0.3333333333333333], \"ontop\": [0, 0]}}" energy=-310.4256876923958 dipole="-11.60933523318624 27.827480725697374 -0.42796290743182797" pbc="T T F"
Au       2.18315511       1.30741515       7.00000000        3       0.00000000       0.01942095      -0.05618201       0.05978199
Au       5.20250107       1.30741515       7.00000000        3       0.00000000       0.02245104      -0.05502690       0.05702531
Au       8.22184702       1.30741515       7.00000000        3       0.00000000       0.02726547      -0.05442846       0.06535184
Au       0.67348213       3.92224545       7.00000000        3       0.00000000      -0.03256882      -0.00881851       0.00884711
Au       3.69282809       3.92224545       7.00000000        3       0.00000000      -0.03179343      -0.00691573       0.00653934
Au       6.71217404       3.92224545       7.00000000        3       0.00000000      -0.02971398      -0.00898848       0.01231485
Au       0.66321217       2.19619653       9.42386483        2       0.00000000       0.00057993      -0.00039991       0.01101079
Au       3.68190174       2.19437661       9.41996903        2       0.00000000      -0.00001262      -0.00073587       0.00766126
Au       6.70437238       2.19313371       9.42164381        2       0.00000000       0.00045675       0.00102902       0.01128725
Au       2.17332607       4.81178792       9.41178572        2       0.00000000       0.00215437      -0.00157603      -0.00064638
Au       5.18890898       4.81039801       9.40789628        2       0.00000000      -0.00015531       0.00273165      -0.00172968
Au       8.21533555       4.80824192       9.41210271        2       0.00000000       0.00286304       0.00115006      -0.00035203
Au       0.66206294       0.45850685      11.84830275        1       0.00000000      -0.00306325       0.00290140      -0.00523900
Au       3.67761489       0.45517358      11.83983695        1       0.00000000       0.00166807       0.00248186      -0.00335309
Au       6.70154303       0.45158176      11.84424296        1       0.00000000       0.00044756       0.00473757      -0.00748615
Au       2.16865221       3.08899345      11.83983238        1       0.00000000      -0.00077632       0.00087573      -0.00714681
Au       5.19140054       3.08134891      11.82789724        1       0.00000000      -0.00253748      -0.00294249      -0.00783199
Au       8.21000936       3.09157785      11.84473856        1       0.00000000       0.00256857      -0.00574820      -0.00575897
O        6.75103568      -0.21256387      15.83513748        0       0.00000000      -0.01198712      -0.02173056       0.01598350
H        7.15693737      -1.06828396      16.12494218        0       0.00000000       0.00691589      -0.00165589      -0.01063144
H        6.80851397      -0.23821262      14.86231977        0       0.00000000       0.02060373      -0.01765901      -0.00783497
O        7.82473129       2.39460489      16.63676530        0       0.00000000       0.00761917      -0.00167483       0.00593506
H        7.52962366       1.48648870      16.38952554        0       0.00000000      -0.01003838      -0.00233424      -0.00561520
H        8.78115052       2.40284863      16.45516246        0       0.00000000       0.00351878       0.00957667       0.00854004
O        3.87865020      -0.02864096      16.47948066        0       0.00000000      -0.00149751      -0.01294745      -0.01605776
H        3.46824076      -0.88217061      16.21380237        0       0.00000000      -0.00799605      -0.01859066       0.00952608
H        4.83248217      -0.13446496      16.26074892        0       0.00000000       0.01305162       0.00377535       0.00947065
O        2.74256482       2.25129802      15.49995016        0       0.00000000       0.03439711       0.02684563       0.02396875
H        3.19875151       1.41750229      15.83283444        0       0.00000000      -0.02740214       0.00071120      -0.01642499
H        2.42385697       2.03390153      14.60161848        0       0.00000000       0.01681915      -0.02961777       0.01384135
Au       2.18315511       6.53707575       7.00000000        3       0.00000000       0.02126694       0.07430017       0.04406334
Au       5.20250107       6.53707575       7.00000000        3       0.00000000       0.02575586       0.07669358       0.03877695
Au       8.22184702       6.53707575       7.00000000        3       0.00000000       0.02348155       0.07490995       0.04854934
Au       0.67348213       9.15190605       7.00000000        3       0.00000000       0.02140506      -0.07821118       0.04406182
Au       3.69282809       9.15190605       7.00000000        3       0.00000000       0.02378318      -0.07773743       0.03693340
Au       6.71217404       9.15190605       7.00000000        3       0.00000000       0.02174376      -0.08051475       0.04634050
Au       0.66382304       7.40441729       9.43417374        2       0.00000000       0.00055252      -0.00158520       0.00644473
Au       3.68382039       7.40187389       9.43447622        2       0.00000000      -0.00241116       0.00190895       0.00389273
Au       6.70168738       7.40505433       9.43379603        2       0.00000000       0.00170990       0.00016386       0.00444465
Au       2.17366261      10.01198535       9.41087612        2       0.00000000       0.00122774       0.00030127       0.00490397
Au       5.19110288      10.01435032       9.41076677        2       0.00000000      -0.00144927       0.00062855       0.00561989
Au       8.21295479      10.01381252       9.40852396        2       0.00000000       0.00005818       0.00122970       0.00595316
Au       0.66264247       5.67697169      11.88049725        1       0.00000000       0.00343042      -0.00349122      -0.00268115
Au       3.68016075       5.67005615      11.89362712        1       0.00000000      -0.00210140       0.00752061      -0.00926653
Au       6.70217885       5.66334610      11.85754282        1       0.00000000      -0.00115967      -0.00594325      -0.01146490
Au       2.17141454       8.28723276      11.85578543        1       0.00000000      -0.00101282      -0.00038761      -0.00579130
Au       5.18899868       8.28936849      11.85045527        1       0.00000000       0.00116140      -0.00075912      -0.00542608
Au       8.20934186       8.29207361      11.85017349        1       0.00000000       0.00097457      -0.00278821      -0.00430061
O        6.51343802       4.52779262      15.59095502        0       0.00000000      -0.01178817      -0.01230844       0.01999483
H        6.97499026       3.70847366      15.94648462        0       0.00000000      -0.00128840       0.00002460      -0.00058076
H        6.89631735       4.67406622      14.70395968        0       0.00000000       0.00141976       0.00821259      -0.00313063
O        8.25611421       8.12177422      16.73008940        0       0.00000000      -0.01771227       0.00353343      -0.03704903
H        7.86013373       7.26615804      16.48713759        0       0.00000000      -0.00051860      -0.00308391       0.01226632
H        9.16794273       8.08629038      16.36037402        0       0.00000000       0.01919461       0.02773458      -0.00056383
O        4.00326304       4.44067925      15.34989693        0       0.00000000       0.01212936      -0.00908018       0.01308303
H        3.54402367       3.47579501      15.43194452        0       0.00000000      -0.00579715      -0.00543697       0.01027704
H        5.06847018       4.40403403      15.47430144        0       0.00000000       0.01491577      -0.00265144      -0.00147062
O        1.95489218       8.17416536      15.71813434        0       0.00000000       0.01286962       0.00107077       0.01481491
H        2.36653092       7.34055474      16.01446849        0       0.00000000      -0.00055044       0.01346313       0.00790258
H        1.96345578       8.10453362      14.74376301        0       0.00000000       0.00278974       0.00943160      -0.01265760
H        3.83761609       4.75910833      14.42938240        0       0.00000000      -0.00662804       0.01295243      -0.00588968
Au       2.18315511      11.76673635       7.00000000        3       0.00000000      -0.03306155      -0.00902584       0.01517465
Au       5.20250107      11.76673635       7.00000000        3       0.00000000      -0.03271602      -0.00707812       0.01492415
Au       8.22184702      11.76673635       7.00000000        3       0.00000000      -0.03006618      -0.00927090       0.01252820
Au       0.67348213      14.38156665       7.00000000        3       0.00000000       0.02252609       0.07655370       0.05303793
Au       3.69282809      14.38156665       7.00000000        3       0.00000000       0.02567787       0.07609305       0.05359556
Au       6.71217404      14.38156665       7.00000000        3       0.00000000       0.02210341       0.07557235       0.05658437
Au       0.66250368      12.64505345       9.40327763        2       0.00000000      -0.00177806       0.00085534      -0.00550783
Au       3.68301231      12.64500173       9.40255928        2       0.00000000       0.00068012       0.00421853      -0.00891369
Au       6.70087829      12.64494342       9.40324362        2       0.00000000       0.00330778       0.00104313      -0.00460343
Au       2.17219228      15.26814518       9.42436304        2       0.00000000      -0.00175478      -0.00029304      -0.00572246
Au       5.19155767      15.27054677       9.42294583        2       0.00000000       0.00338634      -0.00202465      -0.00224138
Au       8.21498851      15.26970424       9.42271257        2       0.00000000       0.00035875       0.00254133       0.00431619
Au       0.66148496      10.91023429      11.81709228        1       0.00000000      -0.00044255      -0.00199896       0.00025508
Au       3.68012093      10.91487349      11.81823039        1       0.00000000      -0.00046963      -0.00410141      -0.00043185
Au       6.70044997      10.90581195      11.81762710        1       0.00000000      -0.00000193       0.00101645      -0.00584010
Au       2.17126836      13.51948794      11.81817383        1       0.00000000      -0.00237101      -0.00703964      -0.00426183
Au       5.19013974      13.52354802      11.81670663        1       0.00000000       0.00158556      -0.00830860      -0.00046858
Au       8.20843976      13.52341037      11.81624229        1       0.00000000      -0.00077036      -0.00278499       0.00107674
O        2.60475744      13.02212454      15.72172622        0       0.00000000       0.00728042       0.00007801       0.01521084
O        3.81109163      10.47726396      16.62417467        0       0.00000000       0.00108265       0.01686649      -0.01487972
O        6.70780802      10.37263986      15.87385053        0       0.00000000      -0.00537685       0.00805770       0.00762988
O        7.98805459      12.97462991      16.67275742        0       0.00000000       0.01053696       0.00278426      -0.00366700
H        2.57920575      12.97708537      14.74886000        0       0.00000000       0.00347178       0.00139024      -0.01079143
H        3.03758389      12.17453029      15.98819894        0       0.00000000      -0.00126993       0.00781183       0.01192693
H        3.31485664       9.70344462      16.28511341        0       0.00000000       0.00446534       0.00451158       0.01188004
H        4.74214930      10.33110093      16.34677997        0       0.00000000       0.01320761       0.01602672       0.00165564
H        6.73708246      10.34725087      14.90066908        0       0.00000000       0.00485908      -0.01229481      -0.01454997
H        7.23916811       9.58310593      16.15460049        0       0.00000000      -0.00377274       0.01370281      -0.02149699
H        7.60893000      12.11233855      16.38771780        0       0.00000000      -0.01340964       0.00101643       0.00581011
H        8.92194545      12.93138710      16.39897024        0       0.00000000       0.00789423       0.00252083       0.00602011
91
Lattice="9.058037866999674 0.0 0.0 0.0 15.68898180252625 0.0 0.0 0.0 25.0" Properties=species:S:1:pos:R:3:tags:I:1:initial_magmoms:R:1:forces:R:3 adsorbate_info="_JSON {\"cell\": [[2.9839906166072305, 0.0], [1.4919953083036153, 2.5842116786362523]], \"sites\": {\"bridge\": [0.5, 0.0], \"hcp\": [0.6666666666666666, 0.6666666666666666], \"fcc\": [0.3333333333333333, 0.3333333333333333], \"ontop\": [0, 0]}}" energy=-310.33788601058797 dipole="-14.352403040709103 12.441080836073198 -0.3039572449615326" pbc="T T F"
Au       2.18315511       1.30741515       7.00000000        3       0.00000000       0.01879983      -0.05510430       0.06178596
Au       5.20250107       1.30741515       7.00000000        3       0.00000000       0.02545748      -0.05616984       0.06364588
Au       8.22184702       1.30741515       7.00000000        3       0.00000000       0.02522441      -0.06133245       0.07835915
Au       0.67348213       3.92224545       7.00000000        3       0.00000000      -0.03196560      -0.00862928       0.01078178
Au       3.69282809       3.92224545       7.00000000        3       0.00000000      -0.02988841      -0.00617856       0.00807507
Au       6.71217404       3.92224545       7.00000000        3       0.00000000      -0.03036328      -0.01030993       0.01754406
Au       0.66275728       2.19658669       9.42326720        2       0.00000000       0.00041707      -0.00737336      -0.00110313
Au       3.68295309       2.19675955       9.41920668        2       0.00000000       0.00286893      -0.00842722       0.00181686
Au       6.70464479       2.19363218       9.42274992        2       0.00000000      -0.00287256      -0.00427229      -0.00216640
Au       2.17624822       4.81701025       9.41034050        2       0.00000000      -0.00234099      -0.01155684       0.00703574
Au       5.18968010       4.82090743       9.40748123        2       0.00000000      -0.00043782      -0.02108206       0.00831323
Au       8.21552293       4.81541637       9.41030576        2       0.00000000      -0.00232160      -0.01336613       0.00865155
Au       0.66027879       0.45483643      11.84884518        1       0.00000000       0.00107904      -0.00288596      -0.00931192
Au       3.67887760       0.45188922      11.83709892        1       0.00000000       0.00037911      -0.00129867      -0.00127392
Au       6.70153250       0.44734086      11.84828544        1       0.00000000      -0.00124974       0.00003908      -0.01661272
Au       2.16922086       3.08118751      11.83446797        1       0.00000000       0.00160577       0.00596461      -0.01149914
Au       5.18894039       3.07836972      11.82207805        1       0.00000000       0.00087710      -0.00084144       0.00695849
Au       8.21050121       3.08269511      11.83515120        1       0.00000000       0.00096425      -0.00481918      -0.00210051
O        6.75051597      -0.20085114      15.89446978        0       0.00000000       0.01727186       0.03757968       0.02496162
H        7.15703014      -1.06435199      16.15055282        0       0.00000000       0.00299739       0.01493813       0.01058480
H        6.79442746      -0.20599777      14.92122264        0       0.00000000      -0.00606711      -0.00124628      -0.03133425
O        7.99500540       2.45204756      16.65661947        0       0.00000000      -0.05080333       0.00946031      -0.06478963
H        7.69897327       1.54695557      16.41434516        0       0.00000000      -0.03183182      -0.01600952       0.00421966
H        8.94713032       2.46311350      16.44850628        0       0.00000000      -0.05146850       0.00166847       0.01000632
O        3.79484735       0.06511891      16.50296215        0       0.00000000      -0.01887966      -0.01099606      -0.05529786
H        3.38010259      -0.76377016      16.18495261        0       0.00000000       0.03455448      -0.00114388       0.02399610
H        4.75338360      -0.05038173      16.31556776        0       0.00000000       0.01600118      -0.02021695       0.00328468
O        2.66321053       2.35914289      15.48758565        0       0.00000000       0.02707501       0.00468572      -0.07099690
H        3.12034778       1.53639035      15.83585843        0       0.00000000       0.02363625      -0.03909063       0.02531688
H        2.37293751       2.12524121      14.58146427        0       0.00000000       0.00198269      -0.01486495       0.06654401
Au       2.18315511       6.53707575       7.00000000        3       0.00000000       0.01977532       0.08094455       0.04479510
Au       5.20250107       6.53707575       7.00000000        3       0.00000000       0.02676673       0.08587211       0.04119910
Au       8.22184702       6.53707575       7.00000000        3       0.00000000       0.02423918       0.08311267       0.04962963
Au       0.67348213       9.15190605       7.00000000        3       0.00000000       0.01819767      -0.06976596       0.06795996
Au       3.69282809       9.15190605       7.00000000        3       0.00000000       0.02594759      -0.06812318       0.05869434
Au       6.71217404       9.15190605       7.00000000        3       0.00000000       0.02487811      -0.07152087       0.06893133
Au       0.66416913       7.40955142       9.43672199        2       0.00000000      -0.00090644       0.00271821      -0.00135876
Au       3.68223353       7.40855523       9.43608149        2       0.00000000       0.00242751       0.00363850      -0.00059089
Au       6.70330076       7.41019935       9.43653470        2       0.00000000      -0.00335507       0.00057712      -0.00016551
Au       2.17184063      10.02162881       9.42006844        2       0.00000000       0.00052231      -0.00578358      -0.01036810
Au       5.19424076      10.02541679       9.42005843        2       0.00000000      -0.00499330      -0.00766408      -0.00842801
Au       8.21368260      10.02723535       9.42162081        2       0.00000000       0.00085148      -0.01161727      -0.01110027
Au       0.66460571       5.66556663      11.87670729        1       0.00000000      -0.00110373       0.01684017      -0.01512650
Au       3.67967254       5.67251648      11.90099622        1       0.00000000       0.00120876       0.00810377      -0.04049069
Au       6.70278269       5.65334734      11.86735844        1       0.00000000      -0.00356781       0.00975119      -0.02592189
Au       2.16945091       8.28798348      11.86118710        1       0.00000000       0.00254895      -0.00124103      -0.01877806
Au       5.19087729       8.28924852      11.85100006        1       0.00000000      -0.00192662      -0.00291193      -0.00641723
Au       8.21020988       8.29203753      11.85115179        1       0.00000000      -0.00121452      -0.00568124      -0.00429710
O        6.50654631       4.61743416      15.58621340        0       0.00000000      -0.01325131      -0.02961168      -0.05575969
H        7.00869412       3.82604057      15.92244891        0       0.00000000      -0.00949054      -0.03271379       0.02289401
H        6.87350349       4.78898357      14.69522732        0       0.00000000       0.01313417      -0.01537564       0.07015643
O        8.23594979       7.97384856      16.72912102        0       0.00000000       0.02445007       0.03308000      -0.02282785
H        7.86870083       7.11175359      16.46424480        0       0.00000000       0.00725979       0.00411908       0.01326873
H        9.14872099       7.98234065      16.36001546        0       0.00000000       0.00041048      -0.00091608       0.00738195
O        3.94712044       4.50567849      15.27129573        0       0.00000000       0.01477746       0.06365194      -0.08099485
H        3.46681715       3.54384920      15.39070629        0       0.00000000      -0.00538641      -0.04747543       0.02717470
H        4.98192269       4.46057846      15.42990178        0       0.00000000       0.03509458      -0.00664333       0.04262546
O        1.94718739       8.15027942      15.71735357        0       0.00000000       0.00160881       0.02291179      -0.05566367
H        2.38725149       7.32828961      16.00454029        0       0.00000000       0.00066866       0.00012167       0.00464090
H        1.96171245       8.09524021      14.74050974        0       0.00000000      -0.00180793      -0.00625576       0.06654979
H        3.82107746       4.77795564      14.32197819        0       0.00000000       0.00947576      -0.01172281       0.12053808
Au       2.18315511      11.76673635       7.00000000        3       0.00000000      -0.03336546      -0.01925658       0.01153775
Au       5.20250107      11.76673635       7.00000000        3       0.00000000      -0.03090736      -0.01652302       0.01141244
Au       8.22184702      11.76673635       7.00000000        3       0.00000000      -0.03089949      -0.02033129       0.00757016
Au       0.67348213      14.38156665       7.00000000        3       0.00000000       0.01776802       0.08631334       0.04764268
Au       3.69282809      14.38156665       7.00000000        3       0.00000000       0.02739504       0.08564787       0.04101999
Au       6.71217404      14.38156665       7.00000000        3       0.00000000       0.02582213       0.08465544       0.05381153
Au       0.65894743      12.64972465       9.39997260        2       0.00000000       0.01140912      -0.00606596       0.01804937
Au       3.68410106      12.65148437       9.39586625        2       0.00000000      -0.00395796      -0.01068063       0.02928726
Au       6.70496530      12.64957999       9.40210968        2       0.00000000      -0.01145643      -0.00852381       0.01273462
Au       2.17144953      15.26887608       9.42287666        2       0.00000000      -0.00005399       0.00543663       0.00531042
Au       5.19434717      15.26727640       9.42510234        2       0.00000000      -0.00221887       0.00639941       0.00249876
Au       8.21422910      15.26154238       9.43160778        2       0.00000000      -0.00032170       0.00704617      -0.00528972
Au       0.66217683      10.92114853      11.83172773        1       0.00000000       0.00494366      -0.00620204      -0.02055328
Au       3.67916554      10.91447990      11.81869615        1       0.00000000       0.00015135      -0.00406598       0.00220150
Au       6.70122646      10.91173551      11.83234846        1       0.00000000      -0.00355274      -0.00395332      -0.02940138
Au       2.16829323      13.51499428      11.81421561        1       0.00000000       0.00468765       0.01686485      -0.00196278
Au       5.19275568      13.51200012      11.82065333        1       0.00000000      -0.00682467       0.01654038      -0.00338371
Au       8.20545174      13.50485801      11.83991696        1       0.00000000       0.00393825       0.01413291      -0.03455676
O        2.52448256      12.86560029      15.57315549        0       0.00000000      -0.00877284       0.11898019       0.00965589
O        3.84742584      10.48022325      16.58777054        0       0.00000000      -0.02671502      -0.00285986      -0.00306724
O        6.74262869      10.27435406      15.88819344        0       0.00000000       0.00086060       0.03128132      -0.05935476
O        8.05585128      12.93697424      16.68055563        0       0.00000000       0.00155054       0.02139961      -0.03837518
H        2.45623192      12.78323714      14.60330306        0       0.00000000       0.02110936       0.01265784       0.05715952
H        3.01297767      12.05481806      15.85398122        0       0.00000000       0.00820187      -0.03989508       0.02603290
H        3.34588976       9.70773002      16.25684386        0       0.00000000      -0.00939683      -0.03881940       0.01361503
H        4.77816763      10.32452114      16.31113963        0       0.00000000      -0.00289666      -0.00670600       0.02603326
H        6.78715951      10.26158837      14.91435011        0       0.00000000      -0.00223936       0.00695724       0.03166780
H        7.23612856       9.45880962      16.16035121        0       0.00000000       0.01034994       0.00676923       0.01506079
H        7.68393202      12.07436817      16.39552991        0       0.00000000      -0.01565971      -0.01757281       0.02255642
H        8.99738124      12.88756359      16.43168799        0       0.00000000      -0.03342382       0.00945643      -0.01213939
91
Lattice="9.058037866999674 0.0 0.0 0.0 15.68898180252625 0.0 0.0 0.0 25.0" Properties=species:S:1:pos:R:3:tags:I:1:initial_magmoms:R:1:forces:R:3 adsorbate_info="_JSON {\"cell\": [[2.9839906166072305, 0.0], [1.4919953083036153, 2.5842116786362523]], \"sites\": {\"bridge\": [0.5, 0.0], \"hcp\": [0.6666666666666666, 0.6666666666666666], \"fcc\": [0.3333333333333333, 0.3333333333333333], \"ontop\": [0, 0]}}" energy=-309.7027174602538 dipole="-12.283701356042254 36.01905515848794 1.0722484506516745" pbc="T T F"
Au       2.18315511       1.30741515       7.00000000        3       0.00000000       0.04792853      -0.06451068       0.05528629
Au       5.20250107       1.30741515       7.00000000        3       0.00000000      -0.00390412      -0.07165124       0.05071877
Au       8.22184702       1.30741515       7.00000000        3       0.00000000       0.02667846      -0.08245712       0.06915666
Au       0.67348213       3.92224545       7.00000000        3       0.00000000       0.00772846       0.02357957       0.03920037
Au       3.69282809       3.92224545       7.00000000        3       0.00000000      -0.04737104       0.00293848       0.00913869
Au       6.71217404       3.92224545       7.00000000        3       0.00000000      -0.03784112       0.00608184       0.01277506
Au       0.66992534       2.18090625       9.40555581        2       0.00000000       0.00332880       0.00114565       0.00493133
Au       3.68594296       2.19695471       9.43018772        2       0.00000000      -0.00008215       0.00110386       0.00150898
Au       6.70125629       2.17381739       9.40574234        2       0.00000000      -0.00289818       0.00078922       0.00479730
Au       2.22144688       4.81143521       9.45581949        2       0.00000000      -0.00089736      -0.00291531      -0.00300494
Au       5.18053253       4.80221420       9.42267971        2       0.00000000       0.00244993      -0.00257619      -0.00416364
Au       8.21908210       4.79633266       9.39997883        2       0.00000000       0.00048849       0.00361876       0.00875239
Au       0.65912311       0.43520582      11.84584046        1       0.00000000       0.00196678       0.00347842       0.00163315
Au       3.67958937       0.43814714      11.84092817        1       0.00000000       0.00034674       0.00385013       0.00184716
Au       6.70191399       0.43140601      11.84512335        1       0.00000000      -0.00167462       0.00336806       0.00128937
Au       2.12177903       3.02109632      11.84569167        1       0.00000000       0.00934254       0.02487289       0.01181088
Au       5.24164692       3.02410557      11.84534203        1       0.00000000      -0.00898946       0.02405169       0.01003985
Au       8.20999528       3.05797140      11.81563237        1       0.00000000       0.00001786      -0.00234054       0.00169737
O        6.73286398      -0.44280474      15.95274761        0       0.00000000       0.00615930       0.00316178      -0.00144996
H        7.28315330      -1.24198717      16.13440258        0       0.00000000       0.00123572       0.00013053      -0.00257384
H        6.71834693      -0.38941629      14.98066515        0       0.00000000       0.00032146      -0.00016275      -0.00226828
O        8.39463572       2.53653170      16.48596201        0       0.00000000      -0.00871592       0.00513876      -0.00157252
H        8.03105616       1.64414417      16.32649695        0       0.00000000      -0.00449369       0.00597219       0.00822982
H        9.33163679       2.46931187      16.21266967        0       0.00000000      -0.00511273       0.00506766       0.00072935
O        3.70609698      -0.13298363      16.59011649        0       0.00000000      -0.00185727       0.00764419      -0.00024624
H        3.29500943      -0.97643438      16.30948428        0       0.00000000      -0.00245366       0.00186944       0.01085441
H        4.66174469      -0.26523425      16.41507237        0       0.00000000      -0.00394501       0.00427399       0.00197095
O        2.45361731       2.34475203      15.56225142        0       0.00000000       0.04482470       0.05569803      -0.01383033
H        2.89078402       1.53156059      15.91919554        0       0.00000000       0.02442402       0.04557001       0.01320861
H        2.27970804       2.11350722      14.62913081        0       0.00000000      -0.01135677       0.00998023       0.01317482
Au       2.18315511       6.53707575       7.00000000        3       0.00000000       0.03365245       0.04891609       0.06476308
Au       5.20250107       6.53707575       7.00000000        3       0.00000000       0.00959789       0.07346906       0.04584242
Au       8.22184702       6.53707575       7.00000000        3       0.00000000       0.02833667       0.07391257       0.05744833
Au       0.67348213       9.15190605       7.00000000        3       0.00000000       0.01603107      -0.07871615       0.05286775
Au       3.69282809       9.15190605       7.00000000        3       0.00000000       0.02480698      -0.09961058       0.03993623