30
Lattice="9.058037866999674 0.0 0.0 0.0 5.229660600842084 0.0 0.0 0.0 25.0" Properties=species:S:1:pos:R:3:tags:I:1:initial_magmoms:R:1:forces:R:3 adsorbate_info="_JSON {\"cell\": [[2.9839906166072305, 0.0], [1.4919953083036153, 2.5842116786362523]], \"sites\": {\"bridge\": [0.5, 0.0], \"hcp\": [0.6666666666666666, 0.6666666666666666], \"fcc\": [0.3333333333333333, 0.3333333333333333], \"ontop\": [0, 0]}}" energy=-102.25836508009378 dipole="-6.369302085410106 1.7013172072482525 1.0230851213319823" pbc="T T F"
Au       2.18315511       1.30741515       7.00000000        3       0.00000000      -0.03661099      -0.01951053       0.10380157
Au       5.20250107       1.30741515       7.00000000        3       0.00000000      -0.03943365      -0.01706211       0.10443871
Au       8.22184702       1.30741515       7.00000000        3       0.00000000      -0.03570167      -0.01896372       0.10529571
Au       0.67348213       3.92224545       7.00000000        3       0.00000000      -0.04037320      -0.01721623       0.10523747
Au       3.69282809       3.92224545       7.00000000        3       0.00000000      -0.03505637      -0.01827767       0.10456509
Au       6.71217404       3.92224545       7.00000000        3       0.00000000      -0.03687927      -0.01954990       0.10524916
Au       0.66234471       2.14255286       9.43137008        2       0.00000000      -0.00116355      -0.00403020       0.00355823
Au       3.68054251       2.14282460       9.43190180        2       0.00000000       0.00050377      -0.00447776      -0.00159089
Au       6.70121823       2.14149672       9.43270831        2       0.00000000      -0.00063633      -0.00210123      -0.00273270
Au       2.17128635       4.75566233       9.43260494        2       0.00000000       0.00128229       0.00091098      -0.00366628
Au       5.19111891       4.75870280       9.43116425        2       0.00000000       0.00078098      -0.00893844      -0.00008038
Au       8.20949885       4.75598787       9.43278438        2       0.00000000       0.00251271       0.00096199      -0.00334022
Au       0.66086519       0.48144447      11.85277815        1       0.00000000      -0.00055094       0.00130151      -0.00013603
Au       3.67985202       0.48081522      11.85373766        1       0.00000000      -0.00148217       0.00527716      -0.00539273
Au       6.69900626       0.48094305      11.86339702        1       0.00000000       0.00153023       0.00710164      -0.01395121
Au       2.17020664       3.09651325      11.86569428        1       0.00000000      -0.00166098      -0.00106103      -0.02188076
Au       5.19018138       3.09638772      11.85186348        1       0.00000000      -0.00116528      -0.00266731      -0.00119009
Au       8.20911830       3.09611927      11.85773455        1       0.00000000       0.00001120      -0.00076035      -0.00966522
O        6.73902076       0.61035361      16.03221363        0       0.00000000       0.00380561      -0.00795380       0.03963166
H        7.20654359      -0.22832094      16.26126502        0       0.00000000      -0.00480346       0.00534610      -0.01418016
H        6.73254760       0.61645229      15.05804295        0       0.00000000      -0.00059763      -0.00862494       0.00558249
O        8.16535670       3.32118346      16.78977622        0       0.00000000      -0.01864095       0.01560342      -0.03481433
H        7.75844061       2.46524252      16.53952320        0       0.00000000       0.01581565      -0.00271709       0.00405447
H        9.09408535       3.24868725      16.48572548        0       0.00000000       0.00575924      -0.00173813       0.01286501
O        3.51467214       0.64115633      16.72036460        0       0.00000000      -0.00577867       0.02361124      -0.02536567
H        3.14159643      -0.21859484      16.43240747        0       0.00000000       0.01352669      -0.00603477       0.01731046
H        4.46479217       0.58560354      16.49555531        0       0.00000000      -0.00770417      -0.01157712       0.00250538
O        2.13570103       3.15887090      15.90299587        0       0.00000000       0.01583553      -0.01629997       0.02175412
H        2.57937716       2.30985011      16.14117958        0       0.00000000       0.00697725       0.00459078       0.01347252
H        2.13306733       3.15696451      14.92846920        0       0.00000000      -0.00363927      -0.00006903      -0.01426354
