31
Lattice="9.058037866999674 0.0 0.0 0.0 5.229660600842084 0.0 0.0 0.0 25.0" Properties=species:S:1:pos:R:3:tags:I:1:initial_magmoms:R:1:forces:R:3 adsorbate_info="_JSON {\"cell\": [[2.9839906166072305, 0.0], [1.4919953083036153, 2.5842116786362523]], \"sites\": {\"bridge\": [0.5, 0.0], \"hcp\": [0.6666666666666666, 0.6666666666666666], \"fcc\": [0.3333333333333333, 0.3333333333333333], \"ontop\": [0, 0]}}" energy=-105.62412084026218 dipole="-3.9595236479377878 -10.13828018608767 -2.4649130759719107" pbc="T T F"
Au       2.18315511       1.30741515       7.00000000        3       0.00000000      -0.04119665      -0.00880274       0.06738769
Au       5.20250107       1.30741515       7.00000000        3       0.00000000      -0.02999720      -0.01395765       0.07563504
Au       8.22184702       1.30741515       7.00000000        3       0.00000000      -0.03668146      -0.02159624       0.09490188
Au       0.67348213       3.92224545       7.00000000        3       0.00000000      -0.04722545      -0.01598004       0.08397120
Au       3.69282809       3.92224545       7.00000000        3       0.00000000      -0.02942862      -0.01178890       0.05808317
Au       6.71217404       3.92224545       7.00000000        3       0.00000000      -0.03144337      -0.01563804       0.09060946
Au       0.66523965       2.15042550       9.42555655        2       0.00000000      -0.01697264      -0.01115513       0.01293365
Au       3.68537087       2.15749862       9.41945891        2       0.00000000      -0.00371703      -0.02149364       0.02208457
Au       6.70351564       2.14793774       9.42739555        2       0.00000000      -0.00295681      -0.01240546       0.01227589
Au       2.17736259       4.77233791       9.41901601        2       0.00000000      -0.01063107      -0.01643200       0.02035204
Au       5.19206908       4.76815184       9.42425094        2       0.00000000      -0.00336651      -0.01688295       0.01514248
Au       8.21304695       4.75982726       9.43077949        2       0.00000000      -0.00578226      -0.00852361       0.01063271
Au       0.66487903       0.48230357      11.84949192        1       0.00000000      -0.00293666       0.00175557       0.01126163
Au       3.67921053       0.48463651      11.86670619        1       0.00000000       0.00040542      -0.00639902      -0.00868048
Au       6.69916215       0.48297655      11.85249950        1       0.00000000       0.00062325       0.00186945       0.00266674
Au       2.17052458       3.09731276      11.84694537        1       0.00000000      -0.00416098      -0.00531591      -0.00553474
Au       5.19304049       3.09746618      11.84999954        1       0.00000000      -0.00214560      -0.00186082       0.00283824
Au       8.20866296       3.09526656      11.86590293        1       0.00000000       0.00079096       0.00039082       0.00079646
O        5.60115769       0.04842144      16.26851654        0       0.00000000      -0.01285279      -0.00254780       0.04314086
H        6.10025022      -0.77030025      16.02895781        0       0.00000000       0.00498438      -0.01198989      -0.01814698
H        6.12969515       0.84210876      16.00178801        0       0.00000000      -0.02942669      -0.00427146       0.02823981
O        6.73599888       2.64632878      15.58604810        0       0.00000000      -0.02564750       0.00639245      -0.01427723
H        6.89100452       2.66608100      14.61985211        0       0.00000000       0.03372571      -0.00540573       0.00005312
H        7.63327410       2.62809539      15.96992764        0       0.00000000       0.01924446       0.02660033       0.00620941
O        3.34985821       0.20421845      15.30982398        0       0.00000000       0.00643592      -0.02800260      -0.01526034
H        2.77745284      -0.64208525      15.42726432        0       0.00000000      -0.01293862       0.00820731       0.01143522
H        4.39833423       0.08116608      15.74722319        0       0.00000000       0.00884225       0.03951306      -0.00702665
O        1.72794615       3.37428303      15.50163508        0       0.00000000       0.02500707       0.01350396       0.02652027
H        2.09492368       2.60225343      15.97297118        0       0.00000000       0.01272885      -0.00199641       0.00717688
H        1.55219896       3.04700129      14.59483622        0       0.00000000      -0.00004129      -0.00174632       0.01876578
H        3.44110104       0.34039390      14.32932751        0       0.00000000      -0.02057619      -0.00724916       0.00541811
31
Lattice="9.058037866999674 0.0 0.0 0.0 5.229660600842084 0.0 0.0 0.0 25.0" Properties=species:S:1:pos:R:3:tags:I:1:initial_magmoms:R:1:forces:R:3 adsorbate_info="_JSON {\"cell\": [[2.9839906166072305, 0.0], [1.4919953083036153, 2.5842116786362523]], \"sites\": {\"bridge\": [0.5, 0.0], \"hcp\": [0.6666666666666666, 0.6666666666666666], \"fcc\": [0.3333333333333333, 0.3333333333333333], \"ontop\": [0, 0]}}" energy=-105.18529977600801 dipole="-2.733890329374407 -10.217192096416678 -1.4783787735379017" pbc="T T F"
Au       2.18315511       1.30741515       7.00000000        3       0.00000000      -0.00887155       0.01170856       0.01423943
Au       5.20250107       1.30741515       7.00000000        3       0.00000000      -0.04085129      -0.01990358       0.08177041
Au       8.22184702       1.30741515       7.00000000        3       0.00000000      -0.02248842      -0.01179723       0.03994176
Au       0.67348213       3.92224545       7.00000000        3       0.00000000      -0.01899366       0.01405580       0.02558615
Au       3.69282809       3.92224545       7.00000000        3       0.00000000      -0.00748879      -0.02673472       0.03449023
Au       6.71217404       3.92224545       7.00000000        3       0.00000000      -0.05037391       0.03516061       0.06130068
Au       0.70543227       2.20457652       9.39916399        2       0.00000000       0.00261124       0.00074449       0.00433456
Au       3.69596611       2.13544062       9.44555947        2       0.00000000      -0.00071732       0.01721684      -0.02033300
Au       6.73458675       2.19473549       9.38716488        2       0.00000000      -0.00308752      -0.00383074       0.00764302
Au       2.22199043       4.81266038       9.40974084        2       0.00000000      -0.00608890      -0.00544327      -0.00081743
Au       5.18116872       4.77474335       9.43837350        2       0.00000000       0.02966754      -0.02397051      -0.01546913
Au       8.24852641       4.81881156       9.39848606        2       0.00000000       0.00030773       0.00581592       0.00713719
Au       0.65741874       0.48692253      11.82703951        1       0.00000000       0.03668298      -0.00368880       0.01393080
Au       3.65217403       0.45746313      12.02892496        1       0.00000000       0.01885780       0.03631718       0.06329686
Au       6.70875904       0.47361260      11.81927060        1       0.00000000      -0.03224350       0.00602849       0.01367725
Au       2.16825831       3.10071792      11.82737912        1       0.00000000       0.02977440       0.01267877       0.02456484
Au       5.23637775       3.03549762      11.80396667        1       0.00000000      -0.03471404       0.01853940       0.02765603
Au       8.21710836       3.10002231      11.82682801        1       0.00000000      -0.00038419       0.00046440       0.00281107
O        5.51959787       0.10994160      16.36509172        0       0.00000000      -0.18975388       0.02504709      -0.15900141
H        6.00196814      -0.68164489      16.04234646        0       0.00000000      -0.07780137       0.00037097       0.01096011
H        6.04186665       0.88600792      16.04641525        0       0.00000000      -0.03284169       0.00731013       0.00734257
O        6.70508952       2.56859528      15.36398723        0       0.00000000       0.00014114      -0.00706067      -0.01275688
H        6.67996973       2.54500418      14.38481880        0       0.00000000       0.00641994       0.00938054       0.03890437
H        7.65788145       2.57175294      15.57309339        0       0.00000000      -0.01358304       0.01669147       0.02271501
O        3.11719891       0.33018913      15.14451523        0       0.00000000       0.28295133      -0.18168762      -0.76615779
H        2.60491029      -0.51044116      15.36115304        0       0.00000000       0.02719532      -0.02894245      -0.28499408
H        4.00648039       0.24720512      15.66686597        0       0.00000000       0.19773947       0.00737903      -0.27442026
O        1.64639830       3.08064894      15.39520758        0       0.00000000       0.02568441       0.11107858      -0.02647070
H        2.12840819       2.23915707      15.53325358        0       0.00000000      -0.00045947       0.13797258       0.05838936
H        1.36122535       3.01975220      14.46023927        0       0.00000000      -0.03919751       0.00405735       0.02158305
H        3.33375989       0.35656979      13.97318871        0       0.00000000      -0.18941010      -0.14988610       1.19617578
31
Lattice="9.058037866999674 0.0 0.0 0.0 5.229660600842084 0.0 0.0 0.0 25.0" Properties=species:S:1:pos:R:3:tags:I:1:initial_magmoms:R:1:forces:R:3 adsorbate_info="_JSON {\"cell\": [[2.9839906166072305, 0.0], [1.4919953083036153, 2.5842116786362523]], \"sites\": {\"bridge\": [0.5, 0.0], \"hcp\": [0.6666666666666666, 0.6666666666666666], \"fcc\": [0.3333333333333333, 0.3333333333333333], \"ontop\": [0, 0]}}" energy=-104.94514050219601 dipole="-2.579426425680111 -9.067000662285142 0.19767482270283354" pbc="T T F"
Au       2.18315511       1.30741515       7.00000000        3       0.00000000      -0.00395613       0.00726114      -0.00594694
Au       5.20250107       1.30741515       7.00000000        3       0.00000000      -0.04168339      -0.03020207       0.06036207
Au       8.22184702       1.30741515       7.00000000        3       0.00000000      -0.02520284      -0.01781747       0.05609275
Au       0.67348213       3.92224545       7.00000000        3       0.00000000      -0.02057928       0.02520026       0.04384601
Au       3.69282809       3.92224545       7.00000000        3       0.00000000      -0.00536697      -0.03441441       0.01940165
Au       6.71217404       3.92224545       7.00000000        3       0.00000000      -0.05334377       0.05106230       0.09021896
Au       0.70496577       2.20455470       9.39836413        2       0.00000000      -0.00022383       0.00114713       0.00146765
Au       3.69636661       2.13077949       9.45120977        2       0.00000000       0.00072989       0.00201436      -0.00484582
Au       6.73535178       2.19572052       9.38536729        2       0.00000000       0.00165260       0.00051833       0.00021140
Au       2.22403901       4.81442474       9.41050329        2       0.00000000      -0.00159234      -0.00005198      -0.00095770
Au       5.17314351       4.78082979       9.44308389        2       0.00000000       0.00367426      -0.00159283      -0.00169881
Au       8.24838501       4.81731629       9.39674247        2       0.00000000      -0.00042662      -0.00001927       0.00091994
Au       0.64776706       0.48797065      11.82318055        1       0.00000000       0.00005858       0.00090049      -0.00229751
Au       3.64841919       0.45257504      12.01706476        1       0.00000000       0.02853406       0.02066707       0.00161401
Au       6.71699136       0.47284202      11.81600597        1       0.00000000       0.00035026       0.00577608       0.00229318
Au       2.16056331       3.09867158      11.82075614        1       0.00000000      -0.00019022       0.01041087      -0.00223103
Au       5.24515097       3.03217244      11.79755595        1       0.00000000       0.00186196       0.00785126       0.00132455
Au       8.21711949       3.10032713      11.82614123        1       0.00000000       0.00039208       0.00250268      -0.00109294
O        5.56871875       0.10282485      16.40569294        0       0.00000000       0.03357895      -0.00824051       0.00706556
H        6.02052123      -0.68436810      16.03907372        0       0.00000000       0.00096932      -0.02375596      -0.00428917
H        6.05214346       0.88162689      16.04329187        0       0.00000000       0.01795060      -0.00791565      -0.00381132
O        6.70677869       2.56976285      15.36162972        0       0.00000000      -0.00828003       0.00068972       0.00834219
H        6.67865635       2.54407339      14.38380080        0       0.00000000       0.00739267       0.00838397       0.00505633
H        7.65940961       2.56990961      15.56978195        0       0.00000000      -0.00010393       0.01476647       0.02237643
O        3.04313408       0.37600875      15.34064357        0       0.00000000      -0.00336348       0.00425517      -0.01908088
H        2.59868179      -0.50308297      15.43158616        0       0.00000000       0.00846195       0.00374278      -0.02005028
H        3.95287132       0.24536282      15.73242523        0       0.00000000       0.03442853      -0.00219270       0.00987645
O        1.63738691       3.04519268      15.39889884        0       0.00000000      -0.03099084      -0.01093610       0.00347850
H        2.12938465       2.20160762      15.51502242        0       0.00000000       0.00356772       0.00974601      -0.00915058
H        1.37250839       3.01845149      14.45842286        0       0.00000000      -0.01188868       0.00039404       0.00303108
H        3.38231453       0.39676518      13.64868248        0       0.00000000       0.00462898       0.01030569      -0.03404254
31
Lattice="9.058037866999674 0.0 0.0 0.0 5.229660600842084 0.0 0.0 0.0 25.0" Properties=species:S:1:pos:R:3:tags:I:1:initial_magmoms:R:1:forces:R:3 adsorbate_info="_JSON {\"cell\": [[2.9839906166072305, 0.0], [1.4919953083036153, 2.5842116786362523]], \"sites\": {\"bridge\": [0.5, 0.0], \"hcp\": [0.6666666666666666, 0.6666666666666666], \"fcc\": [0.3333333333333333, 0.3333333333333333], \"ontop\": [0, 0]}}" energy=-105.00580758683913 dipole="-2.0651336305250383 -8.367523624445067 1.1704564526403738" pbc="T T F"
Au       2.18315511       1.30741515       7.00000000        3       0.00000000       0.00235541       0.00431059      -0.02091158
Au       5.20250107       1.30741515       7.00000000        3       0.00000000      -0.04431691      -0.03181511       0.03879300
Au       8.22184702       1.30741515       7.00000000        3       0.00000000      -0.02734927      -0.01297931       0.03956901
Au       0.67348213       3.92224545       7.00000000        3       0.00000000      -0.01596234       0.02783720       0.04081495
Au       3.69282809       3.92224545       7.00000000        3       0.00000000      -0.00681651      -0.04032739       0.01331016
Au       6.71217404       3.92224545       7.00000000        3       0.00000000      -0.06751014       0.06088925       0.10306048
Au       0.70187435       2.20174457       9.39305775        2       0.00000000       0.00102364       0.00448428       0.00888776
Au       3.69835862       2.13607044       9.45290158        2       0.00000000      -0.00818482       0.01233875      -0.01202930
Au       6.73754282       2.19851740       9.38220944        2       0.00000000       0.00173061       0.00097343       0.00416547
Au       2.22123988       4.81475548       9.41247536        2       0.00000000      -0.00759470      -0.00673534      -0.01781611
Au       5.15578251       4.79753328       9.44351269        2       0.00000000       0.00854482      -0.00370832      -0.02884816
Au       8.25131343       4.81371155       9.38536207        2       0.00000000       0.00108335      -0.00155718       0.00544836
Au       0.64988696       0.48807858      11.82437370        1       0.00000000       0.00680198       0.00319281      -0.00861983
Au       3.69255132       0.41656925      11.93644944        1       0.00000000       0.03845679      -0.00234792      -0.04192624
Au       6.75976712       0.43040372      11.78830099        1       0.00000000       0.00654473      -0.00750764      -0.01526120
Au       2.14893938       3.08690886      11.81318544        1       0.00000000       0.01065456       0.00926291      -0.02057694
Au       5.27610813       3.02054341      11.79886656        1       0.00000000      -0.02186787       0.00181988      -0.03856012
Au       8.22716944       3.08990534      11.82501787        1       0.00000000       0.00010347       0.00283581      -0.00729302
O        5.67082864       0.12642645      16.44101113        0       0.00000000       0.01100505      -0.03303075      -0.01643661
H        6.06288033      -0.66075542      16.01410509        0       0.00000000       0.02580448      -0.04337792       0.00431159
H        6.09930259       0.90158147      16.00777994        0       0.00000000       0.02188655      -0.00487002       0.04262853
O        6.73973469       2.55856246      15.32105657        0       0.00000000       0.02042036       0.02712219       0.01712111
H        6.65426902       2.50900042      14.34738012        0       0.00000000       0.01849195       0.03039569       0.00379312
H        7.70339161       2.54174902      15.47160252        0       0.00000000      -0.01153514       0.02433229       0.03398219
O        2.91406771       0.43392567      15.86420604        0       0.00000000      -0.02068527       0.00556129       0.06374928
H        2.56390901      -0.45855002      15.65055972        0       0.00000000      -0.05424272      -0.01474707       0.06014750
H        3.88619442       0.29655393      15.97774948        0       0.00000000       0.00086151       0.02747893       0.08318137
O        1.66830816       3.02021793      15.37224213        0       0.00000000       0.01417360      -0.02936785       0.01505172
H        2.13139168       2.16292036      15.53142980        0       0.00000000      -0.00878225      -0.02529971       0.01083009
H        1.55992862       3.04197402      14.40148595        0       0.00000000      -0.03047776      -0.01389540      -0.01148551
H        3.45596731       0.45373019      13.52962131        0       0.00000000       0.05267307       0.00359970      -0.06705556
31
Lattice="9.058037866999674 0.0 0.0 0.0 5.229660600842084 0.0 0.0 0.0 25.0" Properties=species:S:1:pos:R:3:tags:I:1:initial_magmoms:R:1:forces:R:3 adsorbate_info="_JSON {\"cell\": [[2.9839906166072305, 0.0], [1.4919953083036153, 2.5842116786362523]], \"sites\": {\"bridge\": [0.5, 0.0], \"hcp\": [0.6666666666666666, 0.6666666666666666], \"fcc\": [0.3333333333333333, 0.3333333333333333], \"ontop\": [0, 0]}}" energy=-105.08374405309364 dipole="-1.3992604613684705 -9.977826060162329 1.1837334740020795" pbc="T T F"
Au       2.18315511       1.30741515       7.00000000        3       0.00000000       0.00412916      -0.02520694      -0.01516754
Au       5.20250107       1.30741515       7.00000000        3       0.00000000      -0.05581916      -0.00417923       0.00373417
Au       8.22184702       1.30741515       7.00000000        3       0.00000000      -0.01931850      -0.01941372       0.02191794
Au       0.67348213       3.92224545       7.00000000        3       0.00000000       0.01024625       0.05558327       0.06103408
Au       3.69282809       3.92224545       7.00000000        3       0.00000000      -0.03196139      -0.03735366       0.02566742
Au       6.71217404       3.92224545       7.00000000        3       0.00000000      -0.03668190       0.04631679       0.05557390
Au       0.69544095       2.20026164       9.38181990        2       0.00000000       0.00358123       0.00061907       0.00355195
Au       3.70145524       2.14078817       9.44749696        2       0.00000000       0.00052937      -0.00082271      -0.00120454
Au       6.74682744       2.20066504       9.38121887        2       0.00000000      -0.00281589      -0.00036585       0.00294117
Au       2.24519470       4.81733108       9.43739156        2       0.00000000       0.00266322      -0.00082544       0.00361687
Au       5.20492551       4.81043097       9.41269138        2       0.00000000       0.00029081      -0.00596247      -0.00126008
Au       8.26126116       4.81309352       9.38817866        2       0.00000000       0.00003026       0.00125847       0.00421002
Au       0.65692039       0.48183400      11.82754969        1       0.00000000       0.00089761      -0.00119379      -0.01001561
Au       3.73474855       0.40408158      11.90602888        1       0.00000000       0.00066475      -0.00125755       0.02173233
Au       6.78849694       0.46198970      11.79907305        1       0.00000000      -0.00534032      -0.00203342      -0.01059742
Au       2.12102726       3.03937619      11.78634857        1       0.00000000       0.00282761      -0.00409026      -0.01190990
Au       5.29222774       3.03067842      11.77456139        1       0.00000000      -0.00493526      -0.00061875      -0.00310147
Au       8.22854620       3.09915149      11.84035651        1       0.00000000       0.00080172       0.00050013      -0.02011607
O        6.21152656       0.08327841      16.77683514        0       0.00000000       0.02793725       0.00992071      -0.03545028
H        6.61325460      -0.70712916      16.34967357        0       0.00000000       0.00721508       0.03359049      -0.01581651
H        6.62412924       0.84725274      16.32841651        0       0.00000000       0.02894282       0.02326001       0.01001124
O        7.41637741       2.88093266      15.55529113        0       0.00000000      -0.02471129       0.00437067      -0.05390038
H        7.38682646       2.92562661      14.57742160        0       0.00000000      -0.00758276      -0.01492937       0.09078424
H        8.36913219       2.93134059      15.75910630        0       0.00000000       0.00085529      -0.01929439       0.03330874
O        3.27586066       0.31005741      16.38053260        0       0.00000000       0.00174740       0.00645060      -0.01144024
H        2.95728138      -0.54230902      16.01198124        0       0.00000000      -0.00060649       0.00107202       0.05921158
H        4.25386918       0.20984001      16.42069743        0       0.00000000       0.00938370       0.01062830       0.02471683
O        2.09908781       2.88238838      15.51243843        0       0.00000000       0.01381243       0.00218376      -0.04671953
H        2.54093791       2.02137727      15.70243776        0       0.00000000      -0.00316344      -0.03096316       0.05193102
H        1.99898295       2.88935127      14.54032246        0       0.00000000       0.03218617      -0.01131582       0.08296277
H        3.76661903       0.41402306      13.51636300        0       0.00000000       0.01190152      -0.00852016      -0.01542666
31
Lattice="9.058037866999674 0.0 0.0 0.0 5.229660600842084 0.0 0.0 0.0 25.0" Properties=species:S:1:pos:R:3:tags:I:1:initial_magmoms:R:1:forces:R:3 adsorbate_info="_JSON {\"cell\": [[2.9839906166072305, 0.0], [1.4919953083036153, 2.5842116786362523]], \"sites\": {\"bridge\": [0.5, 0.0], \"hcp\": [0.6666666666666666, 0.6666666666666666], \"fcc\": [0.3333333333333333, 0.3333333333333333], \"ontop\": [0, 0]}}" energy=-105.18939039574178 dipole="-6.061294923372868 -10.55423427726167 1.169131589435524" pbc="T T F"
Au       2.18315511       1.30741515       7.00000000        3       0.00000000      -0.03795302      -0.01020643       0.06361208
Au       5.20250107       1.30741515       7.00000000        3       0.00000000      -0.03790507       0.01040498       0.08259642
Au       8.22184702       1.30741515       7.00000000        3       0.00000000      -0.05308652      -0.01189772       0.04697108
Au       0.67348213       3.92224545       7.00000000        3       0.00000000      -0.01893259       0.06734465       0.13337233
Au       3.69282809       3.92224545       7.00000000        3       0.00000000      -0.04700418      -0.03244608       0.03935046
Au       6.71217404       3.92224545       7.00000000        3       0.00000000      -0.03946404      -0.03760411       0.04252272
Au       0.63019196       2.20116328       9.37537420        2       0.00000000      -0.01515335       0.00296512       0.00571862
Au       3.69013586       2.14444844       9.43227998        2       0.00000000      -0.00242968       0.00521246       0.00355439
Au       6.69313269       2.14068925       9.43669914        2       0.00000000      -0.01619461      -0.02433692       0.02624501
Au       2.21076419       4.81915953       9.41262415        2       0.00000000      -0.00821045      -0.00090724      -0.00557544
Au       5.19171938       4.76170930       9.42448963        2       0.00000000      -0.00452538      -0.01632585       0.00654536
Au       8.15728494       4.81223171       9.40976559        2       0.00000000      -0.02617824       0.00001481       0.00741189
Au       0.59034315       0.42419791      11.78369860        1       0.00000000      -0.00914290      -0.00267267      -0.02838978
Au       3.55251550       0.40115957      11.93470750        1       0.00000000      -0.04722143      -0.00829461       0.00857721
Au       6.66961977       0.47782486      12.01714570        1       0.00000000      -0.05516876       0.00174535       0.06370537
Au       2.10404432       3.02438073      11.77593560        1       0.00000000      -0.01730118      -0.00883496      -0.00177156
Au       5.20002466       3.08869444      11.81569226        1       0.00000000      -0.03241050       0.02062655       0.01424757
Au       8.19582710       3.08798946      11.84162106        1       0.00000000      -0.01660960       0.00426918      -0.01899054
O        6.27756519       0.10898973      16.83447276        0       0.00000000       0.00806992       0.01377248      -0.04632980
H        6.71880672      -0.65625571      16.40163714        0       0.00000000       0.00248206       0.01404669       0.00700345
H        6.72865323       0.89285220      16.46518525        0       0.00000000      -0.01120099       0.03551458      -0.01151220
O        7.55813970       2.91915035      15.61971336        0       0.00000000      -0.02474175       0.00466598      -0.00581813
H        7.50659539       2.92746749      14.64294255        0       0.00000000       0.00097689      -0.00611207       0.06429956
H        8.51692929       2.91691221      15.80157317        0       0.00000000       0.02628582      -0.00246413       0.01881007
O        3.32870397       0.30267124      16.44984261        0       0.00000000       0.00827033      -0.00063528      -0.02303315
H        3.01490005      -0.55504332      16.09214507        0       0.00000000       0.00190879      -0.00663085       0.03279962
H        4.30816468       0.22107098      16.46778160        0       0.00000000       0.02141258      -0.00365557       0.02135704
O        2.12654495       2.84370262      15.55465099        0       0.00000000      -0.00120879      -0.00069298      -0.03691178
H        2.55641751       1.98341180      15.77628905        0       0.00000000       0.01226175      -0.02334285       0.02792985
H        2.09085406       2.84870425      14.57798526        0       0.00000000       0.02496705      -0.01641762       0.07327702
H        4.92824602       0.51413837      12.96330091        0       0.00000000       0.34432878       0.02018351      -0.16124527
31
Lattice="9.058037866999674 0.0 0.0 0.0 5.229660600842084 0.0 0.0 0.0 25.0" Properties=species:S:1:pos:R:3:tags:I:1:initial_magmoms:R:1:forces:R:3 adsorbate_info="_JSON {\"cell\": [[2.9839906166072305, 0.0], [1.4919953083036153, 2.5842116786362523]], \"sites\": {\"bridge\": [0.5, 0.0], \"hcp\": [0.6666666666666666, 0.6666666666666666], \"fcc\": [0.3333333333333333, 0.3333333333333333], \"ontop\": [0, 0]}}" energy=-105.34973431112162 dipole="-5.794826930197742 0.8267732529355033 0.8909725510668073" pbc="T T F"
Au       2.18315511       1.30741515       7.00000000        3       0.00000000      -0.04794035       0.00168838       0.04207717
Au       5.20250107       1.30741515       7.00000000        3       0.00000000      -0.03701070      -0.00735319       0.11504747
Au       8.22184702       1.30741515       7.00000000        3       0.00000000      -0.01231695       0.00405645       0.07019900
Au       0.67348213       3.92224545       7.00000000        3       0.00000000      -0.04023361       0.02659990       0.12100874
Au       3.69282809       3.92224545       7.00000000        3       0.00000000      -0.01116312      -0.02429198       0.03052170
Au       6.71217404       3.92224545       7.00000000        3       0.00000000      -0.05376918      -0.02700991       0.04299997
Au       0.68428590       2.19833629       9.39571338        2       0.00000000      -0.00207481      -0.00691923      -0.01613537
Au       3.69197154       2.14578553       9.42996070        2       0.00000000       0.00554106       0.00331796       0.01583614
Au       6.69983016       2.14113995       9.42798930        2       0.00000000      -0.00639105       0.02537107       0.03352955
Au       2.21242078       4.81265478       9.40797917        2       0.00000000       0.00197216       0.01350328      -0.00046176
Au       5.19340819       4.74912209       9.44145480        2       0.00000000       0.00708789      -0.02257365       0.01324798
Au       8.18463671       4.80990927       9.40980298        2       0.00000000      -0.00694025      -0.00828019      -0.00792459
Au       0.66010119       0.48062146      11.82339539        1       0.00000000       0.00900065       0.00167831       0.00595174
Au       3.60964285       0.41067190      11.93865616        1       0.00000000      -0.00226415       0.01045613      -0.01359492
Au       6.77384018       0.41028995      11.94007398        1       0.00000000      -0.00064036       0.00660240      -0.01689010