46
Lattice="9.058037866999673 0.0 0.0 4.529018933499836 7.844490901263127 0.0 0.0 0.0 27.0" Properties=species:S:1:pos:R:3:tags:I:1:initial_magmoms:R:1:forces:R:3 energy=-158.38563469130165 dipole="-5.492598078350062 -9.377909249682595 -2.04197311347794" pbc="T T F"
Au       1.50967298       0.87161010       7.00000000        3       0.00000000      -0.05597335      -0.03825498       0.03684941
Au       4.52901893       0.87161010       7.00000000        3       0.00000000       0.00644852       0.02793242       0.02468203
Au       7.54836489       0.87161010       7.00000000        3       0.00000000       0.05285882      -0.00392423       0.02230665
Au       3.01934596       3.48644040       7.00000000        3       0.00000000       0.03744867      -0.01332452       0.00828907
Au       6.03869191       3.48644040       7.00000000        3       0.00000000      -0.05483584      -0.03599928       0.00614907
Au       9.05803787       3.48644040       7.00000000        3       0.00000000       0.02032295       0.04680883       0.03965295
Au       4.52901893       6.10127070       7.00000000        3       0.00000000       0.02283383       0.05072784       0.02212749
Au       7.54836489       6.10127070       7.00000000        3       0.00000000       0.05929670       0.00491935       0.05487026
Au      10.56771084       6.10127070       7.00000000        3       0.00000000      -0.08099539      -0.03730917       0.04874217
Au       0.00472503       1.72461293       9.43468028        2       0.00000000      -0.00062721       0.00128323       0.00874128
Au       3.04298831       1.75636543       9.40999346        2       0.00000000      -0.00000282      -0.00343371       0.01095023
Au       6.02760233       1.75218617       9.42555862        2       0.00000000      -0.00966906       0.00115118      -0.00751047
Au       1.50048158       4.36581244       9.42622184        2       0.00000000      -0.00736614       0.00681496       0.00322482
Au       4.53390666       4.33794774       9.41631666        2       0.00000000      -0.00503041      -0.00417073       0.01082815
Au       7.56743043       4.36884500       9.39930544        2       0.00000000      -0.00653866      -0.00796531       0.01085621
Au       3.03637667       6.98736817       9.40676853        2       0.00000000      -0.00008872      -0.00271672      -0.00427014
Au       6.02430942       6.98571002       9.43870081        2       0.00000000      -0.00375121       0.00386222      -0.00499853
Au       9.06482453       6.96107636       9.43692595        2       0.00000000      -0.00367214      -0.00069385       0.00495189
Au       0.00702390       0.00576862      11.89020575        1       0.00000000       0.00654990      -0.00465294      -0.01782742
Au       3.05284581       0.04348842      11.84391226        1       0.00000000       0.00103599      -0.00997805      -0.00916345
Au       6.09957017       0.00663326      11.87922706        1       0.00000000       0.00878113       0.01307166      -0.02254995
Au       1.56293040       2.62021605      11.85177656        1       0.00000000       0.00987762       0.01030315      -0.03673086
Au       4.54789518       2.62036134      11.85467830        1       0.00000000      -0.01662269      -0.00115586      -0.00950049
Au       7.58714957       2.65674324      11.84761095        1       0.00000000      -0.02839027      -0.00276142      -0.02294601
Au       3.05735640       5.27534923      11.82721964        1       0.00000000      -0.01617584      -0.03536502      -0.01999599
Au       6.09229140       5.23730487      11.84420108        1       0.00000000       0.01191734       0.00394635      -0.03263210
Au       9.07409220       5.23826986      11.85787780        1       0.00000000      -0.01801206      -0.00848261      -0.01656878
O        6.71613877       0.95765713      15.58160520        0       0.00000000       0.00289446       0.01296487      -0.01311996
H        7.01827297       0.13394433      16.00898696        0       0.00000000      -0.00478121       0.00104987      -0.00176951
H        6.74213197       0.76928916      14.62153551        0       0.00000000      -0.00590900      -0.01866296       0.04128667
O        8.17862415       3.04253247      16.32190799        0       0.00000000      -0.00218540       0.00001545      -0.02756923
H        7.68404769       2.20294007      16.02136793        0       0.00000000       0.00473987       0.00412343       0.01126076
H        9.15804047       3.03109669      15.98703996        0       0.00000000      -0.02009429       0.00578848       0.01797416
O        3.22261923       0.99602449      16.58376066        0       0.00000000       0.00082023       0.01433531      -0.04008548
H        2.94186117       0.11520397      16.27797276        0       0.00000000      -0.01119674      -0.00117354       0.03157467
H        4.14132796       1.07583959      16.27047629        0       0.00000000       0.02426884       0.02774843       0.00881773
O        1.60266282       3.05472872      15.52137815        0       0.00000000       0.00343410       0.00284549      -0.01686693
H        2.14110608       2.29270032      15.86817699        0       0.00000000       0.00312074       0.00264179       0.01369742
H        1.63551187       2.97271052      14.54524400        0       0.00000000       0.01730846      -0.00873426       0.03233445
O        6.86265338       5.06640675      15.44829674        0       0.00000000      -0.02472497      -0.00721878      -0.02151284
H        7.65354622       3.86946967      15.95582391        0       0.00000000       0.01380918      -0.01100055       0.03829812
H        6.93118238       5.13506970      14.47282930        0       0.00000000       0.00019723       0.01980740       0.03499416
O        3.98775910       5.32955741      15.53323261        0       0.00000000      -0.00965778      -0.00613767      -0.01538320
H        3.33234991       4.66581861      15.82160674        0       0.00000000       0.00374369      -0.00313957       0.02060608
H        5.89068114       5.02450536      15.62322992        0       0.00000000      -0.01514583      -0.02547189       0.00863547
H        3.83332347       5.40074177      14.57052338        0       0.00000000       0.00201092      -0.01462440       0.01705756
46
Lattice="9.058037866999673 0.0 0.0 4.529018933499836 7.844490901263127 0.0 0.0 0.0 27.0" Properties=species:S:1:pos:R:3:tags:I:1:initial_magmoms:R:1:forces:R:3 energy=-158.16447581956385 dipole="-1.740917469431978 3.644519617859418 -2.144919575042197" pbc="T T F"
Au       1.50967298       0.87161010       7.00000000        3       0.00000000      -0.05256256      -0.03125639       0.04299030
Au       4.52901893       0.87161010       7.00000000        3       0.00000000       0.00589158       0.02236946       0.04080962
Au       7.54836489       0.87161010       7.00000000        3       0.00000000       0.04586832      -0.03170376       0.05205961
Au       3.01934596       3.48644040       7.00000000        3       0.00000000       0.01646844      -0.01173830       0.03246062
Au       6.03869191       3.48644040       7.00000000        3       0.00000000      -0.02690698      -0.01861843       0.03683817
Au       9.05803787       3.48644040       7.00000000        3       0.00000000       0.01152463       0.07328462       0.08881675
Au       4.52901893       6.10127070       7.00000000        3       0.00000000       0.00543046       0.06083932       0.04174487
Au       7.54836489       6.10127070       7.00000000        3       0.00000000       0.06376537      -0.02909283       0.08677945
Au      10.56771084       6.10127070       7.00000000        3       0.00000000      -0.06943815      -0.04057037       0.09097257
Au      -0.00066956       1.72275552       9.43306825        2       0.00000000       0.00277797      -0.00086792      -0.01027327
Au       3.03895524       1.75391914       9.41885940        2       0.00000000       0.00025935       0.00411954      -0.00884204
Au       6.02100413       1.75193879       9.42279576        2       0.00000000      -0.00430799       0.00142616      -0.00880921
Au       1.50242771       4.36630941       9.45030497        2       0.00000000      -0.00989957       0.00626077      -0.02386506
Au       4.52805332       4.33726749       9.41992705        2       0.00000000      -0.00460860       0.00070880      -0.01135785
Au       7.56696747       4.36582144       9.43780195        2       0.00000000      -0.00200704      -0.00276717      -0.02541654
Au       3.03510899       6.97182256       9.43812001        2       0.00000000       0.00396048       0.02555662      -0.02507003
Au       6.02220882       6.98320309       9.43463482        2       0.00000000      -0.00296025       0.00218283      -0.01314667
Au       9.05990236       6.95416236       9.44396246        2       0.00000000       0.00188978       0.00520274      -0.01649573
Au      -0.00031252      -0.00097256      11.89384037        1       0.00000000       0.00673692      -0.00073626       0.00205187
Au       3.01783347       0.01051587      11.85745904        1       0.00000000       0.03009411       0.00694075      -0.04756162
Au       6.06244146      -0.00710541      11.86530694        1       0.00000000       0.01488893       0.00926786      -0.02398026
Au       1.50493052       2.59469481      11.86158259        1       0.00000000       0.01047166       0.01328697      -0.02997888
Au       4.52944544       2.61430922      11.85588719        1       0.00000000      -0.00246410       0.00384251      -0.02957941
Au       7.55523427       2.60219289      11.85432479        1       0.00000000      -0.00832494       0.00942897      -0.03497946
Au       3.05253337       5.24311129      11.90990285        1       0.00000000      -0.01664240       0.03764824      -0.07966966
Au       6.05378846       5.23153128      11.84484856        1       0.00000000       0.02237301      -0.01680141      -0.02936321
Au       9.06068065       5.22826004      11.87769913        1       0.00000000       0.00783216       0.00003059      -0.04703689
O        6.70455732      -0.19752176      15.88966982        0       0.00000000       0.00396033       0.03969177       0.01347780
H        7.16761064      -1.00013895      16.19658231        0       0.00000000      -0.03771411       0.05709729       0.04187916
H        6.77656709      -0.24273148      14.91902196        0       0.00000000       0.00184213      -0.01637384      -0.02903914
O        8.09691712       2.47402010      16.64698493        0       0.00000000      -0.04535841       0.01093669      -0.00927282
H        7.76587073       1.58547388      16.40163340        0       0.00000000      -0.01986640      -0.00108903      -0.01539070
H        9.03974455       2.46763703      16.40390537        0       0.00000000      -0.04517064       0.02348926      -0.01358342
O        3.78993172       0.08254673      16.51554370        0       0.00000000       0.02264713      -0.01401598      -0.01155853
H        3.31059994      -0.72309435      16.25311211        0       0.00000000       0.00092180       0.02555675       0.01399284
H        4.73167869      -0.10116646      16.30663029        0       0.00000000       0.03862339       0.02195354      -0.01426670
O        2.64779536       2.38173530      15.47977074        0       0.00000000       0.07258960       0.02905531       0.05138175
H        3.09172974       1.56263113      15.85029420        0       0.00000000       0.04477311       0.04081598      -0.00307644
H        2.36787239       2.13245863      14.57624148        0       0.00000000       0.00313788       0.00892240      -0.00440761
O        6.54674455       4.65878190      15.55715102        0       0.00000000      -0.05507143      -0.05238519       0.02774468
H        7.06715794       3.89343256      15.91846173        0       0.00000000      -0.05055815      -0.00672337       0.00740831
H        6.91103455       4.80745437      14.66419618        0       0.00000000       0.01011419      -0.02308863      -0.02611171
O        3.92219621       4.54667065      15.25423573        0       0.00000000       0.05295039      -0.05524983       0.01787845
H        3.44429259       3.58559131      15.40007227        0       0.00000000       0.03183399      -0.02953596      -0.00269444
H        4.94319484       4.50917533      15.42066827        0       0.00000000       0.04858612      -0.02098973      -0.00104315
H        3.78892256       4.78641200      14.29580786        0       0.00000000       0.06336437      -0.03294669       0.08816094
46
Lattice="9.058037866999673 0.0 0.0 4.529018933499836 7.844490901263127 0.0 0.0 0.0 27.0" Properties=species:S:1:pos:R:3:tags:I:1:initial_magmoms:R:1:forces:R:3 energy=-157.56255688967033 dipole="2.886847634856557 16.996359598507638 -0.7667718405703172" pbc="T T F"
Au       1.50967298       0.87161010       7.00000000        3       0.00000000      -0.03028323      -0.04078377      -0.00814938
Au       4.52901893       0.87161010       7.00000000        3       0.00000000       0.01444743       0.03561954       0.01425370
Au       7.54836489       0.87161010       7.00000000        3       0.00000000       0.01638629      -0.08549290       0.04797381
Au       3.01934596       3.48644040       7.00000000        3       0.00000000       0.01102806      -0.02192692      -0.02923901
Au       6.03869191       3.48644040       7.00000000        3       0.00000000      -0.04826827      -0.03406580      -0.00780627
Au       9.05803787       3.48644040       7.00000000        3       0.00000000       0.06854579       0.09432032       0.05076326
Au       4.52901893       6.10127070       7.00000000        3       0.00000000       0.01290441       0.06787507      -0.01206087
Au       7.54836489       6.10127070       7.00000000        3       0.00000000       0.04841040      -0.01038257       0.02397775
Au      10.56771084       6.10127070       7.00000000        3       0.00000000      -0.05771574      -0.06593406       0.04988376
Au      -0.00570929       1.71196179       9.39105433        2       0.00000000       0.00234514      -0.00418317       0.00256716
Au       3.04528173       1.75273522       9.41033929        2       0.00000000      -0.00013657       0.00003066      -0.00328139
Au       6.02887810       1.74295658       9.41565707        2       0.00000000      -0.00167816      -0.00420875       0.00087231
Au       1.56815164       4.33999237       9.47092025        2       0.00000000      -0.00656189      -0.01351699      -0.02282538
Au       4.53296929       4.33220484       9.42012956        2       0.00000000       0.00276056      -0.00432641      -0.00523270
Au       7.58176639       4.35946089       9.39402641        2       0.00000000      -0.00105266       0.00254791       0.00259167
Au       3.04002801       6.88712417       9.45377847        2       0.00000000       0.00294605       0.00123716      -0.02601436
Au       6.02294965       6.98588004       9.41638425        2       0.00000000      -0.00167406      -0.00210706      -0.00435271
Au       9.06731076       6.94562045       9.40796337        2       0.00000000       0.00376994      -0.00389766      -0.00758493
Au       0.00033675      -0.00190092      11.86808830        1       0.00000000      -0.00886888      -0.01508083       0.01066949
Au       3.04526251       0.02800124      11.82318663        1       0.00000000       0.00274717      -0.00096334      -0.00823139
Au       6.03471760      -0.04033265      11.82292149        1       0.00000000       0.01487370      -0.02918301      -0.00211109
Au       1.48732322       2.56855205      11.81983325        1       0.00000000       0.00808046       0.01288471       0.00771282
Au       4.54055692       2.60630485      11.84346122        1       0.00000000      -0.00731434       0.01618797       0.00636094
Au       7.57105564       2.57158827      11.80862684        1       0.00000000      -0.00019311      -0.00775758      -0.00162033
Au       3.15312537       5.21390138      12.11949974        1       0.00000000       0.02530333      -0.01137794       0.08391862
Au       6.11308287       5.22554512      11.78280400        1       0.00000000      -0.01913432      -0.00502897       0.00928212
Au       9.07094761       5.22016603      11.83811717        1       0.00000000       0.01666081      -0.00481529      -0.00205456
O        6.58416603      -0.38274934      15.93138761        0       0.00000000      -0.01811824       0.03042877      -0.01545051
H        7.04658394      -1.21199321      16.15859652        0       0.00000000      -0.03031293       0.02709069       0.02083329
H        6.66289809      -0.34067535      14.96157737        0       0.00000000      -0.00167068       0.01685196      -0.00624332
O        8.44138872       2.56593253      16.51876551        0       0.00000000      -0.00622629       0.00538676       0.00016626
H        8.02558670       1.70872363      16.31300004        0       0.00000000      -0.00636832       0.00488873      -0.00264860
H        9.35842817       2.48167364      16.19017806        0       0.00000000      -0.00697242       0.00408862       0.00681629
O        3.69233209      -0.15213626      16.59615417        0       0.00000000       0.00043237       0.00785473       0.00014336
H        3.22922169      -0.95132336      16.28198754        0       0.00000000      -0.00391147       0.00612165       0.00902987
H        4.63373656      -0.29655369      16.35421276        0       0.00000000      -0.00404544       0.00835356      -0.00950109
O        2.47002161       2.30357512      15.55235979        0       0.00000000       0.06073325       0.04396751      -0.01047810
H        2.89630771       1.48771988      15.91915341        0       0.00000000       0.02641160       0.03480169       0.00822840
H        2.31416549       2.08411130      14.61392375        0       0.00000000      -0.00446259      -0.00454377       0.00401822
O        6.75594462       4.80888207      15.52326975        0       0.00000000      -0.04994980      -0.00312805      -0.00571305
H        7.29246747       4.05950937      15.87822733        0       0.00000000      -0.04883970       0.00431227       0.00841557
H        7.03182232       4.86183465      14.58885439        0       0.00000000      -0.00504508       0.00702670       0.00258500
O        3.79618607       4.77637634      15.17317583        0       0.00000000      -0.04321582      -0.05727140      -0.51192880
H        3.42146645       3.88153832      15.43679365        0       0.00000000      -0.08362098      -0.01119547      -0.17169000
H        4.77823807       4.73392920      15.35451720        0       0.00000000      -0.04174052       0.06041522      -0.18895701
H        3.56354884       4.95482576      13.90905332        0       0.00000000       0.25341805      -0.21182805       0.69016720
46
Lattice="9.058037866999673 0.0 0.0 4.529018933499836 7.844490901263127 0.0 0.0 0.0 27.0" Properties=species:S:1:pos:R:3:tags:I:1:initial_magmoms:R:1:forces:R:3 energy=-157.46096744158876 dipole="3.0408042122479246 16.389648512145676 0.2578391050583889" pbc="T T F"
Au       1.50967298       0.87161010       7.00000000        3       0.00000000      -0.02394174      -0.04367234       0.00112431
Au       4.52901893       0.87161010       7.00000000        3       0.00000000       0.00888773       0.03100945       0.02178509
Au       7.54836489       0.87161010       7.00000000        3       0.00000000       0.01438560      -0.08669720       0.05567582
Au       3.01934596       3.48644040       7.00000000        3       0.00000000       0.00476853      -0.02253177      -0.03735951
Au       6.03869191       3.48644040       7.00000000        3       0.00000000      -0.04697480      -0.03577217      -0.00673712
Au       9.05803787       3.48644040       7.00000000        3       0.00000000       0.07262939       0.09475285       0.05941134
Au       4.52901893       6.10127070       7.00000000        3       0.00000000       0.01147461       0.07082404      -0.02035402
Au       7.54836489       6.10127070       7.00000000        3       0.00000000       0.04867406      -0.00252475       0.03454693
Au      10.56771084       6.10127070       7.00000000        3       0.00000000      -0.05880216      -0.06566738       0.04320936
Au      -0.00621837       1.71289846       9.39025308        2       0.00000000      -0.00070899      -0.00325579      -0.00223419
Au       3.04530139       1.75269895       9.41078771        2       0.00000000      -0.00046717      -0.00115660      -0.00040514
Au       6.02934596       1.74378689       9.41524703        2       0.00000000       0.00113542      -0.00233019      -0.00084254
Au       1.56992799       4.34299908       9.47609760        2       0.00000000       0.00219451      -0.01076560       0.00502271
Au       4.53230971       4.33326236       9.42104240        2       0.00000000       0.00003564      -0.00181108       0.00041923
Au       7.58195975       4.35884090       9.39315921        2       0.00000000       0.00036290      -0.00127647      -0.00028319
Au       3.03962745       6.88612289       9.45973361        2       0.00000000       0.00366981      -0.01864303       0.00229167
Au       6.02326399       6.98622556       9.41717135        2       0.00000000      -0.00093856      -0.00081948      -0.00255498
Au       9.06662084       6.94645121       9.40934916        2       0.00000000       0.00128197      -0.00247642      -0.00696258
Au       0.00242800       0.00176799      11.86614246        1       0.00000000      -0.00088272      -0.00241278       0.00801847
Au       3.04466930       0.02812739      11.82531253        1       0.00000000       0.00107589      -0.00155426      -0.00204957
Au       6.03127873      -0.03409852      11.82398291        1       0.00000000       0.00322058      -0.01695612      -0.00460138
Au       1.48544281       2.56543735      11.81859118        1       0.00000000       0.00009725      -0.00184904       0.00527058
Au       4.54228971       2.60230217      11.84196215        1       0.00000000       0.00239780      -0.00486647       0.00065904
Au       7.57113971       2.57331244      11.80896850        1       0.00000000      -0.00022225      -0.01401363       0.00097082
Au       3.14827279       5.21620900      12.10361730        1       0.00000000       0.00828899      -0.00407639      -0.00058722
Au       6.11800559       5.22665756      11.78089094        1       0.00000000       0.00406113      -0.00162325       0.00221609
Au       9.06706276       5.22119654      11.83871336        1       0.00000000       0.00143256      -0.00291550       0.00082856
O        6.58760451      -0.38808902      15.93306342        0       0.00000000      -0.01039966      -0.00194566      -0.00695378
H        7.05203075      -1.21934039      16.15499058        0       0.00000000      -0.02139578       0.02802151      -0.01297114
H        6.66368163      -0.34603204      14.96318339        0       0.00000000      -0.00500956       0.01671176      -0.00229799
O        8.44358451       2.56383839      16.52056520        0       0.00000000      -0.00158266      -0.00043860      -0.00292390
H        8.02683759       1.70757478      16.31265003        0       0.00000000      -0.00397652       0.00518827      -0.00354783
H        9.35953746       2.48105195      16.18759309        0       0.00000000       0.00082614      -0.00304587       0.00504422
O        3.69297875      -0.15434240      16.59807468        0       0.00000000       0.00335312       0.00361482       0.00221053
H        3.22977982      -0.95186333      16.27919166        0       0.00000000      -0.00275875       0.00374173       0.00965103
H        4.63442471      -0.29826839      16.35593509        0       0.00000000      -0.00239074       0.00660037      -0.00875465
O        2.45566866       2.29263985      15.55561760        0       0.00000000       0.00946803      -0.01107501       0.01275583
H        2.89051696       1.48018945      15.91633939        0       0.00000000       0.00698319      -0.00764441       0.00384654
H        2.31571225       2.08595848      14.61222518        0       0.00000000       0.00679985      -0.00018157       0.00842883
O        6.76880102       4.81029396      15.52590036        0       0.00000000      -0.00759073      -0.01512513       0.01499023
H        7.30340392       4.05814346      15.87573591        0       0.00000000      -0.01456218       0.00054432       0.00315988
H        7.03166545       4.86002127      14.58785336        0       0.00000000      -0.00930647      -0.00105316       0.00384773
O        3.80624086       4.78999729      15.29874670        0       0.00000000      -0.01092682      -0.00602523       0.00494698
H        3.44260464       3.88298229      15.47409071        0       0.00000000       0.01858970       0.01153885      -0.01304047
H        4.78772773       4.71834289      15.39669104        0       0.00000000      -0.02065445      -0.01241466      -0.01169892
H        3.50150826       5.00609739      13.73255662        0       0.00000000       0.03506444      -0.00705874       0.00342465
46
Lattice="9.058037866999673 0.0 0.0 4.529018933499836 7.844490901263127 0.0 0.0 0.0 27.0" Properties=species:S:1:pos:R:3:tags:I:1:initial_magmoms:R:1:forces:R:3 energy=-157.60713760411605 dipole="3.6254312731898377 12.95084510011569 1.5180414192273464" pbc="T T F"
Au       1.50967298       0.87161010       7.00000000        3       0.00000000      -0.00893515      -0.04214755      -0.00575863
Au       4.52901893       0.87161010       7.00000000        3       0.00000000      -0.00832374       0.02748357       0.01607710
Au       7.54836489       0.87161010       7.00000000        3       0.00000000       0.01306101      -0.06141069       0.02191536
Au       3.01934596       3.48644040       7.00000000        3       0.00000000       0.01035859      -0.01768689      -0.04832720
Au       6.03869191       3.48644040       7.00000000        3       0.00000000      -0.05393569      -0.03841402      -0.01469522
Au       9.05803787       3.48644040       7.00000000        3       0.00000000       0.07508534       0.09352498       0.04412154
Au       4.52901893       6.10127070       7.00000000        3       0.00000000      -0.00501247       0.06444274      -0.04009685
Au       7.54836489       6.10127070       7.00000000        3       0.00000000       0.05846182       0.01468557       0.02307610
Au      10.56771084       6.10127070       7.00000000        3       0.00000000      -0.06158693      -0.05136167       0.00068889
Au      -0.00527256       1.72657780       9.38569392        2       0.00000000      -0.00157750       0.00387245      -0.00275601
Au       3.04384978       1.75738437       9.41026224        2       0.00000000      -0.00334951       0.00078611       0.00012808
Au       6.02325139       1.75691844       9.41027624        2       0.00000000      -0.00092720       0.00264264      -0.00062669
Au       1.56757203       4.39025709       9.46402441        2       0.00000000      -0.00589247       0.00512872      -0.00030616
Au       4.52800113       4.34591405       9.42242494        2       0.00000000      -0.00049691       0.00162043       0.00125411
Au       7.58183701       4.36276218       9.38346780        2       0.00000000      -0.00036033       0.00101522      -0.00396794
Au       3.02718373       6.94869897       9.45085318        2       0.00000000      -0.01604723       0.00650009      -0.00269642
Au       6.02651862       6.98723504       9.40696420        2       0.00000000       0.00052938      -0.00184189      -0.00640516
Au       9.06095464       6.95605758       9.41738818        2       0.00000000      -0.00364371       0.00339826      -0.00093135
Au       0.01139670       0.02008931      11.82476727        1       0.00000000       0.00236385       0.00660690      -0.01217065
Au       3.03937090       0.03494619      11.82830908        1       0.00000000      -0.00212667      -0.00194757       0.00175535
Au       6.01338469       0.05281519      11.83378641        1       0.00000000      -0.00696189       0.02947695       0.00466677
Au       1.48294639       2.56539839      11.80585238        1       0.00000000       0.00032060      -0.00049078       0.00309164
Au       4.53657368       2.61175525      11.84316491        1       0.00000000      -0.00318500       0.00318131       0.00534685
Au       7.56968373       2.63752796      11.80642372        1       0.00000000      -0.00166379       0.02045888       0.00069234
Au       3.05861598       5.27336553      11.92893232        1       0.00000000      -0.02902735       0.02071890      -0.06722451
Au       6.11440223       5.23673629      11.77817315        1       0.00000000      -0.00152557       0.00307302       0.00352518
Au       9.05366825       5.23589792      11.83942681        1       0.00000000      -0.00459761       0.00430044       0.00570163
O        6.65369478      -0.42260332      15.92033054        0       0.00000000      -0.00851436      -0.01756415      -0.02539341
H        7.15461310      -1.25333464      16.07008670        0       0.00000000       0.00434107      -0.01274259      -0.01987355
H        6.67669077      -0.33042906      14.95198546        0       0.00000000      -0.01168724       0.01447245      -0.01412205
O        8.47376657       2.54181815      16.55034895        0       0.00000000       0.01165821      -0.00498275       0.01771310
H        8.03084566       1.70110336      16.33366309        0       0.00000000      -0.01021766       0.00426193       0.00602777
H        9.38290594       2.44003534      16.19775881        0       0.00000000       0.00165890      -0.01371605       0.00662013
O        3.68848290      -0.18659749      16.59534698        0       0.00000000      -0.00229803      -0.01516259       0.00496620