61
Lattice="9.058037866999674 0.0 0.0 0.0 10.459321201684167 0.0 0.0 0.0 25.0" Properties=species:S:1:pos:R:3:tags:I:1:initial_magmoms:R:1:forces:R:3 adsorbate_info="_JSON {\"cell\": [[2.9839906166072305, 0.0], [1.4919953083036153, 2.5842116786362523]], \"sites\": {\"bridge\": [0.5, 0.0], \"hcp\": [0.6666666666666666, 0.6666666666666666], \"fcc\": [0.3333333333333333, 0.3333333333333333], \"ontop\": [0, 0]}}" energy=-208.2766482873658 dipole="-6.6062250946988685 -1.6225335566989953 -1.5201545058451074" pbc="T T F"
Au       2.18315511       6.53707575       7.00000000        3       0.00000000      -0.05077819      -0.01374132       0.03812900
Au       5.20250107       6.53707575       7.00000000        3       0.00000000      -0.04912204      -0.01429301       0.04062576
Au       8.22184702       6.53707575       7.00000000        3       0.00000000      -0.04112535      -0.01648413       0.04614679
Au       0.67348213       9.15190605       7.00000000        3       0.00000000      -0.05362482      -0.01307136       0.04432949
Au       3.69282809       9.15190605       7.00000000        3       0.00000000      -0.04169341      -0.01011226       0.03730368
Au       6.71217404       9.15190605       7.00000000        3       0.00000000      -0.04602751      -0.01090923       0.04684201
Au       0.66179372       7.38806719       9.44067221        2       0.00000000      -0.00008039       0.00015110      -0.00067615
Au       3.68167897       7.39072360       9.43783226        2       0.00000000       0.00029601      -0.00159181       0.00117193
Au       6.70070808       7.38923664       9.43864111        2       0.00000000      -0.00083995      -0.00313177       0.00417702
Au       2.17058187      10.00173417       9.44082073        2       0.00000000       0.00010310       0.00009074       0.00316983
Au       5.19151456      10.00196298       9.44159924        2       0.00000000      -0.00131622      -0.00247330       0.00044339
Au       8.21071405      10.00155138       9.44152909        2       0.00000000       0.00111886       0.00044298       0.00386750
Au       0.66060384       5.69429970      11.85551479        1       0.00000000       0.00115762      -0.00804299      -0.01348175
Au       3.68015516       5.69291364      11.85117961        1       0.00000000       0.00086617       0.00400369      -0.04227181
Au       6.69951439       5.69570192      11.85789108        1       0.00000000      -0.00323518      -0.00431235      -0.02015846
Au       2.17004396       8.30871268      11.86216989        1       0.00000000       0.00314155       0.00338476      -0.03914781
Au       5.19126684       8.30684360      11.86318728        1       0.00000000      -0.00372275       0.00461713      -0.04022817
Au       8.20725212       8.30615984      11.86486131        1       0.00000000       0.00156178       0.01077343      -0.03743215
O        5.90531383       5.37068953      16.48016274        0       0.00000000       0.00631070      -0.01087247      -0.00976047
H        6.54165978       4.55620034      16.50620745        0       0.00000000       0.00073171      -0.00718562       0.01533469
H        6.36063287       6.18264174      16.06044223        0       0.00000000      -0.00585372       0.00199247       0.02401384
O        6.92639760       7.56692647      15.47189504        0       0.00000000      -0.00249721       0.01206172       0.03708321
H        7.02919901       7.57718151      14.49823998        0       0.00000000       0.02071935      -0.00049343       0.01502350
H        7.82277576       7.73855744      15.81728774        0       0.00000000      -0.00611898      -0.00500974       0.00444259
O        3.67748957       5.09778356      15.31580849        0       0.00000000      -0.02127791      -0.00173085       0.03811067
H        3.15028753       4.26081818      15.47990448        0       0.00000000      -0.00601591       0.00100518       0.01137181
H        5.00007127       5.17491509      15.97590834        0       0.00000000       0.02332233       0.00719878       0.02852996
O        1.94147272       9.03265755      15.67306521        0       0.00000000       0.00964203      -0.00078464       0.01917545
H        2.22131873       8.16680964      16.02297560        0       0.00000000      -0.00044250       0.00360634      -0.00019958
H        2.00109391       8.92772659      14.70412387        0       0.00000000       0.00126826      -0.02702622       0.00138806
H        3.74578339       5.16834198      14.33874904        0       0.00000000      -0.00808342      -0.00794253       0.01425358
Au       2.18315511       1.30741515       7.00000000        3       0.00000000      -0.04776981      -0.01064639       0.04646574
Au       5.20250107       1.30741515       7.00000000        3       0.00000000      -0.04917727      -0.01224452       0.04744936
Au       8.22184702       1.30741515       7.00000000        3       0.00000000      -0.04476119      -0.01672762       0.04763052
Au       0.67348213       3.92224545       7.00000000        3       0.00000000      -0.05193531      -0.01347625       0.04617058
Au       3.69282809       3.92224545       7.00000000        3       0.00000000      -0.04391920      -0.01699124       0.04485532
Au       6.71217404       3.92224545       7.00000000        3       0.00000000      -0.04573693      -0.01599374       0.04485285
Au       0.66165291       2.15596835       9.44123645        2       0.00000000      -0.00026414       0.00319488      -0.00033913
Au       3.67969031       2.15700475       9.43962959        2       0.00000000       0.00539422       0.00199765       0.00180386
Au       6.70143121       2.15543476       9.44141769        2       0.00000000      -0.00193785       0.00399421       0.00209186
Au       2.17125076       4.77405517       9.43695651        2       0.00000000      -0.00258573      -0.00138138       0.00325000
Au       5.19188605       4.77217274       9.43767573        2       0.00000000       0.00043005       0.00488422       0.00475101
Au       8.20938214       4.77172890       9.44202328        2       0.00000000       0.00298500      -0.00167784       0.00211290
Au       0.66185968       0.46400615      11.86287747        1       0.00000000      -0.00436039      -0.00428801      -0.03213086
Au       3.68132163       0.46219167      11.85692827        1       0.00000000      -0.01417426      -0.00150191      -0.01705805
Au       6.69902614       0.46327698      11.86490711        1       0.00000000       0.00602412      -0.00013666      -0.03843709
Au       2.16877153       3.07762830      11.85692978        1       0.00000000      -0.00164804       0.00582019      -0.04138618
Au       5.19088497       3.07603520      11.85187299        1       0.00000000      -0.00198679       0.01868101      -0.00385502
Au       8.20919864       3.07696481      11.86001345        1       0.00000000       0.00217280       0.00235136      -0.02906880
O        6.41622108       0.87378770      15.92878675        0       0.00000000      -0.01577600       0.01021053       0.01838301
H        6.81218035       0.14573522      16.44457855        0       0.00000000       0.00018846       0.00926257      -0.02161984
H        6.60738914       0.63920836      15.00131676        0       0.00000000       0.01033478      -0.02367080       0.01609346
O        7.49531047       3.35805928      16.76143294        0       0.00000000      -0.01886864       0.01608580      -0.02726962
H        7.18231370       2.48201099      16.42261456        0       0.00000000      -0.01182523      -0.01017850       0.02500845
H        8.40223612       3.46378464      16.42242123        0       0.00000000       0.00213496      -0.00083641       0.01483220
O        3.52703982       0.75098170      16.66608309        0       0.00000000      -0.01301079       0.01730377      -0.02980256
H        3.09043448      -0.05311323      16.29786639        0       0.00000000       0.00562792      -0.02094514       0.02165240
H        4.45046551       0.72679270      16.33542955        0       0.00000000       0.01099227      -0.01248687       0.03021692
O        2.07566179       2.89547163      15.66830574        0       0.00000000       0.04090543       0.01359904       0.00936231
H        2.60766031       2.11711894      15.99701728        0       0.00000000      -0.00344872      -0.00152159       0.01644715
H        1.83273523       2.65645667      14.75426509        0       0.00000000      -0.01999923      -0.02202614       0.01183788
