62
Lattice="9.058037866999674 0.0 0.0 0.0 10.459321201684167 0.0 0.0 0.0 25.0" Properties=species:S:1:pos:R:3:tags:I:1:initial_magmoms:R:1:forces:R:3 adsorbate_info="_JSON {\"cell\": [[2.9839906166072305, 0.0], [1.4919953083036153, 2.5842116786362523]], \"sites\": {\"bridge\": [0.5, 0.0], \"hcp\": [0.6666666666666666, 0.6666666666666666], \"fcc\": [0.3333333333333333, 0.3333333333333333], \"ontop\": [0, 0]}}" energy=-211.42129016957307 dipole="-8.11114462339609 -16.916004048440843 -4.809373566621242" pbc="T T F"
Au       2.18315511       6.53707575       7.00000000        3       0.00000000      -0.05362993      -0.00800522       0.03109145
Au       5.20250107       6.53707575       7.00000000        3       0.00000000      -0.04299119      -0.01170507       0.03372198
Au       8.22184702       6.53707575       7.00000000        3       0.00000000      -0.04407382      -0.02039917       0.04432125
Au       0.67348213       9.15190605       7.00000000        3       0.00000000      -0.05578294      -0.01245645       0.03845353
Au       3.69282809       9.15190605       7.00000000        3       0.00000000      -0.04121936      -0.01030357       0.02316744
Au       6.71217404       9.15190605       7.00000000        3       0.00000000      -0.04387589      -0.01186238       0.04355157
Au       0.66142323       7.39071728       9.43665379        2       0.00000000       0.00066199      -0.00494596       0.00074197
Au       3.68286963       7.39559105       9.43262730        2       0.00000000      -0.00180098      -0.01361619       0.00200649
Au       6.70114049       7.39014197       9.43735792        2       0.00000000      -0.00073345      -0.00592375       0.00311883
Au       2.17265933      10.00839994       9.43366921        2       0.00000000      -0.00025035      -0.01084247       0.00097442
Au       5.19068287      10.00690597       9.43603360        2       0.00000000      -0.00044958      -0.00847303      -0.00000413
Au       8.21087327      10.00520286       9.43987339        2       0.00000000      -0.00108771      -0.00616084      -0.00008187
Au       0.66214686       5.69573460      11.85286985        1       0.00000000      -0.00123233      -0.01050719       0.00601214
Au       3.68002405       5.69734834      11.85640494        1       0.00000000       0.00015307      -0.01657526      -0.00081292
Au       6.69876042       5.69699940      11.85370383        1       0.00000000      -0.00002081      -0.01124872       0.00589782
Au       2.16854848       8.30847094      11.84782355        1       0.00000000       0.00390294      -0.00768277       0.00601759
Au       5.19222175       8.31053574      11.85290068        1       0.00000000      -0.00402415      -0.01425288       0.00661565
Au       8.20804887       8.30996188      11.85728842        1       0.00000000       0.00104782      -0.01440031      -0.00013202
O        5.60937066       5.23239527      16.29906670        0       0.00000000       0.00763265      -0.00491360      -0.00003556
H        6.09484075       4.41412507      16.00696383        0       0.00000000       0.01351020      -0.00215513       0.01703719
H        6.14691156       6.02441572      16.06496162        0       0.00000000       0.01646544       0.00486962       0.01047320
O        6.72239497       7.96151610      15.51566681        0       0.00000000      -0.00072907      -0.00375798       0.00460917
H        6.75323249       7.94411543      14.53630167        0       0.00000000       0.04220730       0.00205508       0.01802028
H        7.66114269       7.97222236      15.78379107        0       0.00000000       0.00162579      -0.00782291       0.00506830
O        3.39307186       5.45700663      15.29032363        0       0.00000000       0.00409893      -0.01538262      -0.01271292
H        2.80816165       4.62229090      15.40464815        0       0.00000000       0.00157554      -0.01375753      -0.01177715
H        4.44746215       5.31596324      15.75381937        0       0.00000000      -0.02145263      -0.00341691       0.01301072
O        1.77712393       8.60236829      15.42019124        0       0.00000000      -0.02783673       0.00895739       0.00429682
H        2.17656901       7.81596107      15.83943102        0       0.00000000      -0.00364203       0.01358899       0.01893157
H        1.61107909       8.32558468      14.49335832        0       0.00000000      -0.00133427       0.01344074       0.01634274
H        3.49306764       5.58349589      14.30941555        0       0.00000000      -0.01719658      -0.00866273       0.03158349
Au       2.18315511       1.30741515       7.00000000        3       0.00000000      -0.05362977      -0.00800509       0.03109174
Au       5.20250107       1.30741515       7.00000000        3       0.00000000      -0.04299130      -0.01170494       0.03372231
Au       8.22184702       1.30741515       7.00000000        3       0.00000000      -0.04407367      -0.02039935       0.04432086
Au       0.67348213       3.92224545       7.00000000        3       0.00000000      -0.05578265      -0.01245631       0.03845351
Au       3.69282809       3.92224545       7.00000000        3       0.00000000      -0.04121943      -0.01030357       0.02316743
Au       6.71217404       3.92224545       7.00000000        3       0.00000000      -0.04387590      -0.01186226       0.04355131
Au       0.66142319       2.16105684       9.43665376        2       0.00000000       0.00066228      -0.00494640       0.00074193
Au       3.68286963       2.16593061       9.43262725        2       0.00000000      -0.00180080      -0.01361615       0.00200595
Au       6.70114052       2.16048149       9.43735785        2       0.00000000      -0.00073402      -0.00592423       0.00311872
Au       2.17265934       4.77873934       9.43366924        2       0.00000000      -0.00025030      -0.01084191       0.00097415
Au       5.19068290       4.77724534       9.43603353        2       0.00000000      -0.00044987      -0.00847255      -0.00000340
Au       8.21087326       4.77554223       9.43987335        2       0.00000000      -0.00108749      -0.00616019      -0.00008140
Au       0.66214684       0.46607407      11.85286986        1       0.00000000      -0.00123298      -0.01050837       0.00601068
Au       3.68002399       0.46768794      11.85640490        1       0.00000000       0.00015268      -0.01657568      -0.00081541
Au       6.69876049       0.46733891      11.85370378        1       0.00000000      -0.00002017      -0.01124993       0.00589851
Au       2.16854851       3.07881027      11.84782353        1       0.00000000       0.00390368      -0.00768074       0.00601640
Au       5.19222174       3.08087518      11.85290059        1       0.00000000      -0.00402487      -0.01425148       0.00661768
Au       8.20804882       3.08030121      11.85728848        1       0.00000000       0.00104779      -0.01439912      -0.00013505
O        5.60937101       0.00273407      16.29906640        0       0.00000000       0.00763427      -0.00491246      -0.00002994
H        6.09484161      -0.81553573      16.00696433        0       0.00000000       0.01350960      -0.00215391       0.01703672
H        6.14691202       0.79475373      16.06495997        0       0.00000000       0.01646683       0.00486833       0.01047305
O        6.72239143       2.73185945      15.51566443        0       0.00000000      -0.00072592      -0.00375455       0.00462179
H        6.75323037       2.71445511      14.53629971        0       0.00000000       0.04221019       0.00205489       0.01800714
H        7.66113848       2.74255959      15.78379128        0       0.00000000       0.00162764      -0.00782005       0.00506517
O        3.39307101       0.22734688      15.29032424        0       0.00000000       0.00409520      -0.01538213      -0.01271170
H        2.80815908      -0.60736803      15.40464926        0       0.00000000       0.00157932      -0.01375970      -0.01177652
H        4.44745831       0.08630243      15.75381739        0       0.00000000      -0.02145336      -0.00341516       0.01300803
O        1.77712347       3.37270672      15.42018968        0       0.00000000      -0.02784080       0.00895439       0.00430084
H        2.17656793       2.58630083      15.83943256        0       0.00000000      -0.00364358       0.01358869       0.01892952
H        1.61107835       3.09591980      14.49335782        0       0.00000000      -0.00133452       0.01344052       0.01634145
H        3.49306479       0.35383696      14.30941622        0       0.00000000      -0.01719450      -0.00866133       0.03157865
62
Lattice="9.058037866999674 0.0 0.0 0.0 10.459321201684167 0.0 0.0 0.0 25.0" Properties=species:S:1:pos:R:3:tags:I:1:initial_magmoms:R:1:forces:R:3 adsorbate_info="_JSON {\"cell\": [[2.9839906166072305, 0.0], [1.4919953083036153, 2.5842116786362523]], \"sites\": {\"bridge\": [0.5, 0.0], \"hcp\": [0.6666666666666666, 0.6666666666666666], \"fcc\": [0.3333333333333333, 0.3333333333333333], \"ontop\": [0, 0]}}" energy=-210.94705580987858 dipole="-8.431250998642819 -14.358556919917055 -3.6313491651082246" pbc="T T F"
Au       2.18315511       6.53707575       7.00000000        3       0.00000000      -0.05480644      -0.00877571       0.04470322
Au       5.20250107       6.53707575       7.00000000        3       0.00000000      -0.04362269      -0.01059243       0.04519824
Au       8.22184702       6.53707575       7.00000000        3       0.00000000      -0.04174818      -0.02812554       0.06539925
Au       0.67348213       9.15190605       7.00000000        3       0.00000000      -0.04644507      -0.00708434       0.03908709
Au       3.69282809       9.15190605       7.00000000        3       0.00000000      -0.03600132      -0.01158190       0.01054618
Au       6.71217404       9.15190605       7.00000000        3       0.00000000      -0.05899444       0.00019543       0.04778726
Au       0.66216766       7.39020143       9.43639704        2       0.00000000       0.00097491      -0.00005118       0.00202403
Au       3.68343510       7.39455165       9.43455403        2       0.00000000      -0.00056707       0.00030874      -0.00161657
Au       6.70005244       7.39180921       9.43599341        2       0.00000000      -0.00329560      -0.00596551       0.00593940
Au       2.18423160      10.01103218       9.44284343        2       0.00000000      -0.00426837      -0.00347274      -0.00249326
Au       5.17656970      10.01260236       9.45053678        2       0.00000000       0.00896849      -0.00826992      -0.00935075
Au       8.21053766      10.00188487       9.43892163        2       0.00000000      -0.00181502       0.00285236       0.00442115
Au       0.66106484       5.69355380      11.85624434        1       0.00000000       0.00110655      -0.00005834      -0.00328136
Au       3.67946046       5.69377395      11.85414854        1       0.00000000      -0.00042651       0.00123525       0.00156088
Au       6.70025305       5.69470308      11.85313325        1       0.00000000      -0.00174763       0.00001036      -0.00151646
Au       2.16652739       8.29934209      11.84244268        1       0.00000000       0.00818936       0.02275370       0.01282141
Au       5.19598553       8.30279410      11.85106965        1       0.00000000      -0.01347573       0.02340068       0.00704314
Au       8.20803403       8.30630560      11.85611719        1       0.00000000      -0.00124247       0.00041130       0.00053118
O        5.59675200       5.22752136      16.23520968        0       0.00000000       0.01023606      -0.00124483       0.00828840
H        6.10818928       4.42924704      15.93426702        0       0.00000000      -0.00716173      -0.00315551       0.00049183
H        6.08816362       6.05006929      15.97258658        0       0.00000000      -0.00482390       0.00362084       0.00061485
O        6.67516949       7.80300964      15.53306780        0       0.00000000      -0.00504819       0.00154154      -0.01841138
H        6.76229420       7.86347459      14.55985285        0       0.00000000       0.00430907      -0.00119192       0.03407260
H        7.59435939       7.87716846      15.85252657        0       0.00000000       0.00340926       0.00213678       0.02072601
O        3.33048875       5.27635331      15.31432079        0       0.00000000       0.00887025       0.01688590      -0.03260313
H        2.81797968       4.39133019      15.41575434        0       0.00000000       0.00728491       0.01117081       0.00372381
H        4.42017607       5.22260411      15.74336612        0       0.00000000       0.02465044       0.00010442       0.01261102
O        1.59040386       8.60872011      15.41765965        0       0.00000000       0.05476017       0.07001557       0.00775547
H        2.08035200       7.88666594      15.85642615        0       0.00000000      -0.01712086       0.07231613       0.02285448
H        1.48542554       8.29027596      14.49671846        0       0.00000000      -0.02375672       0.03295547       0.02946055
H        3.38737900       5.44598689      14.33971417        0       0.00000000      -0.00996521       0.00270144       0.04318714
Au       2.18315511       1.30741515       7.00000000        3       0.00000000      -0.06013580      -0.00673992       0.02456956
Au       5.20250107       1.30741515       7.00000000        3       0.00000000      -0.03601303      -0.01406523       0.02739799
Au       8.22184702       1.30741515       7.00000000        3       0.00000000      -0.04464301      -0.01790358       0.05642324
Au       0.67348213       3.92224545       7.00000000        3       0.00000000      -0.05335607      -0.01529429       0.04483330
Au       3.69282809       3.92224545       7.00000000        3       0.00000000      -0.04158520      -0.01700272       0.02006781
Au       6.71217404       3.92224545       7.00000000        3       0.00000000      -0.04646966      -0.01388417       0.05066407
Au       0.66370843       2.15803197       9.43656944        2       0.00000000       0.00010501      -0.00241780       0.00068664
Au       3.68256275       2.14167093       9.45109012        2       0.00000000      -0.00078354       0.00418408      -0.00376465
Au       6.69858307       2.15835595       9.43718454        2       0.00000000      -0.00119262      -0.00799874       0.00514913
Au       2.17486607       4.77349860       9.43379701        2       0.00000000      -0.00348469      -0.00325359       0.00191431
Au       5.18827106       4.77432423       9.43579618        2       0.00000000       0.00299625      -0.01036899       0.00535745
Au       8.21084821       4.77488357       9.43919426        2       0.00000000      -0.00096143      -0.00305016       0.00031122
Au       0.65589864       0.46274882      11.84633504        1       0.00000000       0.01856382      -0.00074622       0.01175620
Au       3.67304821       0.46219852      12.04044315        1       0.00000000      -0.01188295       0.00588683       0.11601445
Au       6.70259017       0.46465407      11.85019177        1       0.00000000      -0.02057473      -0.00215062       0.01311050
Au       2.16558087       3.08389695      11.84194518        1       0.00000000       0.01228891      -0.01815544       0.01007148
Au       5.19451914       3.08117936      11.84857471        1       0.00000000      -0.01356713      -0.01817849       0.01248240
Au       8.20880656       3.07843542      11.85665391        1       0.00000000      -0.00062956      -0.00239596      -0.00014479
O        5.54592735       0.13358048      16.40368934        0       0.00000000      -0.10058760       0.00984908      -0.05500023
H        6.00898090      -0.67986935      16.10901038        0       0.00000000      -0.05718500       0.00542594       0.01710675
H        6.10771683       0.88205240      16.10434705        0       0.00000000      -0.04253850      -0.00194459       0.02787211
O        6.74426251       2.74606726      15.44295977        0       0.00000000       0.00451943      -0.00527904      -0.01181846
H        6.78428301       2.69613832      14.46471492        0       0.00000000       0.01491972       0.00409165       0.03836991
H        7.68067859       2.73183690      15.71631341        0       0.00000000       0.00458027      -0.00005540       0.02782205
O        3.15650853       0.47704409      15.13721744        0       0.00000000       0.17232871      -0.14600727      -0.53360786
H        2.58655645      -0.32896610      15.33568260        0       0.00000000       0.01876451      -0.05498458      -0.19136120
H        4.02628437       0.33533994      15.65095000        0       0.00000000       0.12641900      -0.02141409      -0.18615892
O        1.84754651       3.11553097      15.45927644        0       0.00000000      -0.03296108       0.00215587      -0.00769051
H        2.31979183       2.25430988      15.50128637        0       0.00000000      -0.00870466       0.04538416       0.01336171
H        1.38678987       3.08855973      14.59646100        0       0.00000000      -0.02057314      -0.00898289       0.03901890
H        3.40482278       0.46115835      13.85037036        0       0.00000000      -0.12517989      -0.06660761       0.68170982
62
Lattice="9.058037866999674 0.0 0.0 0.0 10.459321201684167 0.0 0.0 0.0 25.0" Properties=species:S:1:pos:R:3:tags:I:1:initial_magmoms:R:1:forces:R:3 adsorbate_info="_JSON {\"cell\": [[2.9839906166072305, 0.0], [1.4919953083036153, 2.5842116786362523]], \"sites\": {\"bridge\": [0.5, 0.0], \"hcp\": [0.6666666666666666, 0.6666666666666666], \"fcc\": [0.3333333333333333, 0.3333333333333333], \"ontop\": [0, 0]}}" energy=-210.82888442749265 dipole="-8.320777746016136 -12.304371187531991 -2.419610549764284" pbc="T T F"
Au       2.18315511       6.53707575       7.00000000        3       0.00000000      -0.05024831      -0.01346320       0.04324011
Au       5.20250107       6.53707575       7.00000000        3       0.00000000      -0.04895569      -0.01626516       0.04398241
Au       8.22184702       6.53707575       7.00000000        3       0.00000000      -0.04095100      -0.03552307       0.06558434
Au       0.67348213       9.15190605       7.00000000        3       0.00000000      -0.04030201       0.00233390       0.04463630
Au       3.69282809       9.15190605       7.00000000        3       0.00000000      -0.03426593      -0.01021594      -0.01416210
Au       6.71217404       9.15190605       7.00000000        3       0.00000000      -0.06837401       0.01322924       0.06135465
Au       0.66099535       7.38921407       9.43535471        2       0.00000000       0.00006851       0.00168267      -0.00066492
Au       3.68379248       7.39349916       9.43448147        2       0.00000000      -0.00012272       0.00096725      -0.00094577
Au       6.70052630       7.39139863       9.43466568        2       0.00000000      -0.00128966      -0.00453188       0.00350920
Au       2.18531221      10.01155104       9.44358373        2       0.00000000       0.00202639       0.00121525       0.00245633
Au       5.17363533      10.01432619       9.45407654        2       0.00000000      -0.00250565       0.00153948       0.00179104
Au       8.21064094       9.99988927       9.43733001        2       0.00000000      -0.00093985      -0.00058144       0.00062648
Au       0.66047969       5.69338230      11.85734739        1       0.00000000       0.00016288      -0.00014829       0.00077351
Au       3.67971140       5.69307269      11.85311729        1       0.00000000      -0.00096186       0.00027758       0.00476073
Au       6.70096152       5.69444840      11.85450779        1       0.00000000      -0.00107959       0.00001254       0.00110015
Au       2.16386075       8.29138864      11.83787425        1       0.00000000      -0.00236976       0.00288062       0.00568854
Au       5.20027271       8.29560588      11.84874300        1       0.00000000      -0.00843415       0.00724990       0.00089482
Au       8.20818801       8.30583643      11.85629650        1       0.00000000      -0.00149437       0.00047841       0.00224273
O        5.59797201       5.22709671      16.23706225        0       0.00000000      -0.00297517      -0.00122469      -0.00623875
H        6.10892656       4.42886355      15.93507184        0       0.00000000      -0.00288209       0.00417411       0.00352792
H        6.08769406       6.05059957      15.97400502        0       0.00000000       0.00048352      -0.00427235       0.00091842
O        6.67838098       7.80005776      15.53332605        0       0.00000000       0.01710756      -0.01143753       0.01162744
H        6.76343688       7.86356381      14.56070105        0       0.00000000       0.01019539      -0.00284041       0.00613260
H        7.59709361       7.87940796      15.85398983        0       0.00000000      -0.01549729      -0.00299699       0.00884135
O        3.33002547       5.27071695      15.31754453        0       0.00000000       0.00465533       0.00108284      -0.00011749
H        2.82016441       4.37939030      15.41350834        0       0.00000000       0.00960526       0.00008420       0.01329219
H        4.41856164       5.21970505      15.74504672        0       0.00000000       0.01417911       0.00025948       0.01267260
O        1.57564179       8.58766064      15.41486001        0       0.00000000      -0.00694704       0.00334608       0.01343106
H        2.07610624       7.87116063      15.84891316        0       0.00000000      -0.02458007       0.02394254       0.00374592
H        1.48786160       8.28693918      14.48775032        0       0.00000000      -0.00526594       0.01290709       0.00151856
H        3.38643723       5.44410738      14.34453256        0       0.00000000      -0.00480786       0.01051280       0.01382629
Au       2.18315511       1.30741515       7.00000000        3       0.00000000      -0.06355422      -0.00874698       0.00011575
Au       5.20250107       1.30741515       7.00000000        3       0.00000000      -0.03267637      -0.01837999       0.00273133
Au       8.22184702       1.30741515       7.00000000        3       0.00000000      -0.04396321      -0.01471015       0.06466842
Au       0.67348213       3.92224545       7.00000000        3       0.00000000      -0.05505094      -0.01424339       0.04864580
Au       3.69282809       3.92224545       7.00000000        3       0.00000000      -0.04209987      -0.01735349       0.01708045
Au       6.71217404       3.92224545       7.00000000        3       0.00000000      -0.04497295      -0.01173605       0.05535174
Au       0.66339015       2.15796193       9.43604408        2       0.00000000       0.00063644      -0.00011972      -0.00011289
Au       3.68298601       2.13972747       9.45149580        2       0.00000000      -0.00041695      -0.00267946       0.00313782
Au       6.69902203       2.15899090       9.43616551        2       0.00000000       0.00024090      -0.00608266       0.00408060
Au       2.17531727       4.77413539       9.43249990        2       0.00000000       0.00042095      -0.00002121      -0.00065728
Au       5.18794615       4.77547701       9.43430243        2       0.00000000      -0.00119872      -0.00739590       0.00502511
Au       8.21078812       4.77489585       9.43891588        2       0.00000000      -0.00039363      -0.00156804      -0.00108759
Au       0.64973983       0.46260942      11.84291938        1       0.00000000      -0.00212105      -0.00016213      -0.00015690
Au       3.67450043       0.46110074      12.01316571        1       0.00000000       0.00669368       0.00330102      -0.03152032
Au       6.70857832       0.46489634      11.84693524        1       0.00000000      -0.00669482      -0.00187050       0.00858258
Au       2.16149284       3.08940774      11.83819043        1       0.00000000      -0.00070826      -0.00029265       0.00312778
Au       5.19896279       3.08592480      11.84543867        1       0.00000000      -0.00270755      -0.00494936       0.00707111
Au       8.20888607       3.07890464      11.85708249        1       0.00000000      -0.00115971      -0.00106098       0.00296875
O        5.57524956       0.13142994      16.42192081        0       0.00000000       0.00588184      -0.00039560       0.00101473
H        6.02167409      -0.68133893      16.10635259        0       0.00000000      -0.00687073       0.00021234       0.00263725
H        6.11694558       0.88130099      16.09583209        0       0.00000000      -0.00052529      -0.00110899       0.00223551
O        6.74639424       2.74686955      15.44273728        0       0.00000000       0.02119538       0.00113933       0.01312256
H        6.78759774       2.69912731      14.46491809        0       0.00000000       0.01815236       0.00284369       0.01147510
H        7.68223716       2.72947119      15.71947531        0       0.00000000      -0.01796760       0.00203022       0.02313485
O        3.10001960       0.53396790      15.31183060        0       0.00000000       0.01210308       0.00874727       0.04608684
H        2.57762427      -0.30287610      15.40657223        0       0.00000000      -0.00699889      -0.02195581       0.00382664
H        3.99169421       0.34682805      15.72323786        0       0.00000000       0.01937044      -0.00916492       0.00413174
O        1.86328750       3.10434387      15.45629461        0       0.00000000      -0.00266809      -0.03048905       0.02869793
H        2.32578396       2.22846152      15.49770749        0       0.00000000       0.00397038      -0.00474366       0.00090785
H        1.39172690       3.08073652      14.59993391        0       0.00000000      -0.01115061      -0.00800115       0.03015296
H        3.44055889       0.49274655      13.63924597        0       0.00000000      -0.00653951       0.01683474       0.02973788
62
Lattice="9.058037866999674 0.0 0.0 0.0 10.459321201684167 0.0 0.0 0.0 25.0" Properties=species:S:1:pos:R:3:tags:I:1:initial_magmoms:R:1:forces:R:3 adsorbate_info="_JSON {\"cell\": [[2.9839906166072305, 0.0], [1.4919953083036153, 2.5842116786362523]], \"sites\": {\"bridge\": [0.5, 0.0], \"hcp\": [0.6666666666666666, 0.6666666666666666], \"fcc\": [0.3333333333333333, 0.3333333333333333], \"ontop\": [0, 0]}}" energy=-210.90002472494533 dipole="-7.697795378996952 -9.838947860990363 -1.2623495783293328" pbc="T T F"
Au       2.18315511       6.53707575       7.00000000        3       0.00000000      -0.04755036      -0.01568503       0.02430821
Au       5.20250107       6.53707575       7.00000000        3       0.00000000      -0.06961929       0.01558142      -0.04330631
Au       8.22184702       6.53707575       7.00000000        3       0.00000000      -0.01899900      -0.05400119       0.02534709
Au       0.67348213       9.15190605       7.00000000        3       0.00000000      -0.02537072       0.01204713       0.03490235
Au       3.69282809       9.15190605       7.00000000        3       0.00000000      -0.03557435      -0.00316046      -0.05612478
Au       6.71217404       9.15190605       7.00000000        3       0.00000000      -0.08012018       0.06653954       0.00943872
Au       0.66271486       7.38669953       9.43172417        2       0.00000000      -0.01163028      -0.00169647      -0.00571724
Au       3.68506516       7.39794971       9.43296858        2       0.00000000       0.00219457       0.00475343       0.00107660
Au       6.71458381       7.43208538       9.40029138        2       0.00000000       0.00273444       0.00785127      -0.00066292
Au       2.18365429      10.01306612       9.43655632        2       0.00000000      -0.00101595      -0.00640184       0.00407491
Au       5.17477123      10.01770434       9.45378485        2       0.00000000       0.01005722      -0.00293097      -0.00104094
Au       8.22103915      10.00481893       9.42698847        2       0.00000000       0.00094594       0.00921093      -0.00276455
Au       0.65884207       5.69269675      11.86413630        1       0.00000000       0.00682305      -0.01103441      -0.01125151
Au       3.68130248       5.68893293      11.85998104        1       0.00000000      -0.00231513      -0.00753431      -0.02315637
Au       6.71005697       5.69313172      11.85432603        1       0.00000000      -0.01111740       0.00460162      -0.01571117
Au       2.16745806       8.25600581      11.81152235        1       0.00000000      -0.01718423      -0.01731517      -0.03496529
Au       5.25965317       8.23699175      11.84697230        1       0.00000000       0.00913257      -0.00288573      -0.00418346
Au       8.21645842       8.30397218      11.85798506        1       0.00000000      -0.00418875       0.00169954      -0.00774024
O        5.61989679       5.22536715      16.25908593        0       0.00000000      -0.03046266       0.01692070       0.00165808
H        6.14061673       4.44546941      15.93512928        0       0.00000000      -0.02655248       0.00928030       0.03237180
H        6.09440633       6.04749056      15.97971778        0       0.00000000      -0.00574623       0.01103398       0.02794541
O        6.68778763       7.84323118      15.51598872        0       0.00000000       0.01195653      -0.04466161       0.02439202
H        6.73182773       7.87224339      14.53912557        0       0.00000000       0.01583357      -0.00006950       0.00028712
H        7.62211702       7.89872273      15.79239436        0       0.00000000      -0.00742860      -0.00445702       0.01610426
O        3.32859260       5.23514765      15.29664105        0       0.00000000       0.02190027      -0.01506929       0.00977512
H        2.80328005       4.32645117      15.39459973        0       0.00000000       0.00559044      -0.02166098      -0.01203742
H        4.34461577       5.19261988      15.72138604        0       0.00000000       0.03152370       0.02177930       0.00609364