2
Lattice="14.0 0.0 0.0 0.0 14.0 0.0 0.0 0.0 14.737166" Properties=species:S:1:pos:R:3:forces:R:3 energy=-6.724166889199719 dipole="3.0469676681306224e-10 3.046980152605992e-10 1.3573190653624794e-10" pbc="T T T"
H        7.00000000       7.00000000       7.74257161      -0.00000000      -0.00000000      -0.00075086
H        7.00000000       7.00000000       6.99459439      -0.00000000       0.00000000       0.00075086
